 vasp.5.4.4.18Apr17-6-g9f103f2a35 (build Oct 27 2022 13:04:57) complex          
  
 executed on             LinuxIFC date 2024.07.04  04:02:01
 running on   14 total cores
 distrk:  each k-point on   14 cores,    1 groups
 distr:  one band on NCORES_PER_BAND=   1 cores,   14 groups


--------------------------------------------------------------------------------------------------------


 INCAR:
 POTCAR:    PAW_PBE Li 17Jan2003                  
 POTCAR:    PAW_PBE In 08Apr2002                  
 POTCAR:    PAW_PBE Se 06Sep2000                  

 ----------------------------------------------------------------------------- 
|                                                                             |
|           W    W    AA    RRRRR   N    N  II  N    N   GGGG   !!!           |
|           W    W   A  A   R    R  NN   N  II  NN   N  G    G  !!!           |
|           W    W  A    A  R    R  N N  N  II  N N  N  G       !!!           |
|           W WW W  AAAAAA  RRRRR   N  N N  II  N  N N  G  GGG   !            |
|           WW  WW  A    A  R   R   N   NN  II  N   NN  G    G                |
|           W    W  A    A  R    R  N    N  II  N    N   GGGG   !!!           |
|                                                                             |
|      For optimal performance we recommend to set                            |
|        NCORE= 4 - approx SQRT( number of cores)                             |
|      NCORE specifies how many cores store one orbital (NPAR=cpu/NCORE).     |
|      This setting can  greatly improve the performance of VASP for DFT.     |
|      The default,   NCORE=1            might be grossly inefficient         |
|      on modern multi-core architectures or massively parallel machines.     |
|      Do your own testing !!!!                                               |
|      Unfortunately you need to use the default for GW and RPA calculations. |
|      (for HF NCORE is supported but not extensively tested yet)             |
|                                                                             |
 ----------------------------------------------------------------------------- 

 POTCAR:    PAW_PBE Li 17Jan2003                  
   VRHFIN =Li: s1p0                                                             
   LEXCH  = PE                                                                  
   EATOM  =     5.3001 eV,    0.3895 Ry                                         
                                                                                
   TITEL  = PAW_PBE Li 17Jan2003                                                
   LULTRA =        F    use ultrasoft PP ?                                      
   IUNSCR =        1    unscreen: 0-lin 1-nonlin 2-no                           
   RPACOR =    1.500    partial core radius                                     
   POMASS =    7.010; ZVAL   =    1.000    mass and valenz                      
   RCORE  =    2.050    outmost cutoff radius                                   
   RWIGS  =    2.600; RWIGS  =    1.376    wigner-seitz radius (au A)           
   ENMAX  =  140.000; ENMIN  =  100.000 eV                                      
   ICORE  =        2    local potential                                         
   LCOR   =        T    correct aug charges                                     
   LPAW   =        T    paw PP                                                  
   EAUG   =  331.638                                                            
   DEXC   =    0.000                                                            
   RMAX   =    2.098    core radius for proj-oper                               
   RAUG   =    1.300    factor for augmentation sphere                          
   RDEP   =    2.094    radius for radial grids                                 
   RDEPT  =    1.810    core radius for aug-charge                              
                                                                                
   Atomic configuration                                                         
    4 entries                                                                   
     n  l   j            E        occ.                                          
     1  0  0.50       -51.8549   2.0000                                         
     2  0  0.50        -2.8742   1.0000                                         
     2  1  0.50        -1.3606   0.0000                                         
     3  2  1.50        -1.3606   0.0000                                         
   Description                                                                  
     l       E           TYP  RCUT    TYP  RCUT                                 
     0     -2.8742052     23  2.050                                             
     0     27.2116520     23  2.050                                             
     1     -1.3605826     23  2.050                                             
     2     -1.3605826     23  2.050                                             
  local pseudopotential read in
  partial core-charges read in
  partial kinetic energy density read in
  atomic valenz-charges read in
  non local Contribution for L=           0  read in
    real space projection operators read in
  non local Contribution for L=           0  read in
    real space projection operators read in
  non local Contribution for L=           1  read in
    real space projection operators read in
    PAW grid and wavefunctions read in
 
   number of l-projection  operators is LMAX  =           3
   number of lm-projection operators is LMMAX =           5
 
 POTCAR:    PAW_PBE In 08Apr2002                  
   VRHFIN =In: s2p1                                                             
   LEXCH  = PE                                                                  
   EATOM  =    53.7908 eV,    3.9535 Ry                                         
                                                                                
   TITEL  = PAW_PBE In 08Apr2002                                                
   LULTRA =        F    use ultrasoft PP ?                                      
   IUNSCR =        1    unscreen: 0-lin 1-nonlin 2-no                           
   RPACOR =    2.400    partial core radius                                     
   POMASS =  114.820; ZVAL   =    3.000    mass and valenz                      
   RCORE  =    3.100    outmost cutoff radius                                   
   RWIGS  =    3.170; RWIGS  =    1.677    wigner-seitz radius (au A)           
   ENMAX  =   95.934; ENMIN  =   71.951 eV                                      
   ICORE  =        3    local potential                                         
   LCOR   =        T    correct aug charges                                     
   LPAW   =        T    paw PP                                                  
   EAUG   =  237.125                                                            
   DEXC   =    0.000                                                            
   RMAX   =    3.168    core radius for proj-oper                               
   RAUG   =    1.300    factor for augmentation sphere                          
   RDEP   =    3.187    radius for radial grids                                 
   RDEPT  =    2.711    core radius for aug-charge                              
                                                                                
   Atomic configuration                                                         
   13 entries                                                                   
     n  l   j            E        occ.                                          
     1  0  0.50    -27747.9169   2.0000                                         
     2  0  0.50     -4154.4438   2.0000                                         
     2  1  1.50     -3728.4305   6.0000                                         
     3  0  0.50      -788.3680   2.0000                                         
     3  1  1.50      -648.9215   6.0000                                         
     3  2  2.50      -432.5893  10.0000                                         
     4  0  0.50      -119.6363   2.0000                                         
     4  1  1.50       -78.1086   6.0000                                         
     4  2  2.50       -18.6227  10.0000                                         
     5  0  0.50        -8.2107   2.0000                                         
     5  1  0.50        -2.5185   1.0000                                         
     5  2  2.50        -1.3606   0.0000                                         
     4  3  2.50        -2.7212   0.0000                                         
   Description                                                                  
     l       E           TYP  RCUT    TYP  RCUT                                 
     0     -8.2107306     23  3.100                                             
     0     -6.1485975     23  3.100                                             
     1     -2.5184867     23  3.100                                             
     1      3.2427302     23  3.100                                             
     2     -1.3605826     23  3.100                                             
     3     -1.3605826     23  3.100                                             
  local pseudopotential read in
  partial core-charges read in
  partial kinetic energy density read in
  atomic valenz-charges read in
  non local Contribution for L=           0  read in
    real space projection operators read in
  non local Contribution for L=           0  read in
    real space projection operators read in
  non local Contribution for L=           1  read in
    real space projection operators read in
  non local Contribution for L=           1  read in
    real space projection operators read in
  non local Contribution for L=           2  read in
    real space projection operators read in
    PAW grid and wavefunctions read in
 
   number of l-projection  operators is LMAX  =           5
   number of lm-projection operators is LMMAX =          13
 
 POTCAR:    PAW_PBE Se 06Sep2000                  
   VRHFIN =Se: s2p4                                                             
   LEXCH  = PE                                                                  
   EATOM  =   257.1286 eV,   18.8984 Ry                                         
                                                                                
   TITEL  = PAW_PBE Se 06Sep2000                                                
   LULTRA =        F    use ultrasoft PP ?                                      
   IUNSCR =        1    unscreen: 0-lin 1-nonlin 2-no                           
   RPACOR =    1.900    partial core radius                                     
   POMASS =   78.960; ZVAL   =    6.000    mass and valenz                      
   RCORE  =    2.100    outmost cutoff radius                                   
   RWIGS  =    2.200; RWIGS  =    1.164    wigner-seitz radius (au A)           
   ENMAX  =  211.555; ENMIN  =  158.666 eV                                      
   ICORE  =        3    local potential                                         
   LCOR   =        T    correct aug charges                                     
   LPAW   =        T    paw PP                                                  
   EAUG   =  446.842                                                            
   DEXC   =    0.000                                                            
   RMAX   =    2.147    core radius for proj-oper                               
   RAUG   =    1.300    factor for augmentation sphere                          
   RDEP   =    2.177    radius for radial grids                                 
   RDEPT  =    1.928    core radius for aug-charge                              
                                                                                
   Atomic configuration                                                         
   10 entries                                                                   
     n  l   j            E        occ.                                          
     1  0  0.50    -12503.4787   2.0000                                         
     2  0  0.50     -1606.9547   2.0000                                         
     2  1  1.50     -1413.3140   6.0000                                         
     3  0  0.50      -213.4885   2.0000                                         
     3  1  1.50      -152.9538   6.0000                                         
     3  2  2.50       -53.1221  10.0000                                         
     4  0  0.50       -17.2865   2.0000                                         
     4  1  0.50        -6.5110   4.0000                                         
     4  2  2.50        -6.8029   0.0000                                         
     4  3  2.50        -6.8029   0.0000                                         
   Description                                                                  
     l       E           TYP  RCUT    TYP  RCUT                                 
     0    -17.2865377     23  2.100                                             
     0    -15.3094411     23  2.100                                             
     1     -6.5110275     23  2.100                                             
     1     -0.0695192     23  2.100                                             
     2     -6.8029130     23  2.100                                             
     3     -1.3605826      7  2.100                                             
  local pseudopotential read in
  partial core-charges read in
  partial kinetic energy density read in
  atomic valenz-charges read in
  non local Contribution for L=           0  read in
    real space projection operators read in
  non local Contribution for L=           0  read in
    real space projection operators read in
  non local Contribution for L=           1  read in
    real space projection operators read in
  non local Contribution for L=           1  read in
    real space projection operators read in
  non local Contribution for L=           2  read in
    real space projection operators read in
    PAW grid and wavefunctions read in
 
   number of l-projection  operators is LMAX  =           5
   number of lm-projection operators is LMMAX =          13
 
 Optimization of the real space projectors (new method)

 maximal supplied QI-value         = 18.33
 optimisation between [QCUT,QGAM] = [  8.80, 17.60] = [ 21.68, 86.71] Ry 
 Optimized for a Real-space Cutoff    1.15 Angstroem

   l    n(q)    QCUT    max X(q) W(low)/X(q) W(high)/X(q)  e(spline) 
   0      6     8.799    33.825    0.11E-02    0.11E-02    0.82E-07
   0      6     8.799     8.944    0.75E-03    0.85E-03    0.59E-07
   1      5     8.799     4.214    0.92E-03    0.27E-03    0.41E-07
 Optimization of the real space projectors (new method)

 maximal supplied QI-value         = 12.09
 optimisation between [QCUT,QGAM] = [  8.83, 17.66] = [ 21.83, 87.31] Ry 
 Optimized for a Real-space Cutoff    1.64 Angstroem

   l    n(q)    QCUT    max X(q) W(low)/X(q) W(high)/X(q)  e(spline) 
   0      9     8.829   106.980    0.60E-03    0.42E-03    0.23E-06
   0      9     8.829    81.086    0.66E-03    0.46E-03    0.26E-06
   1      8     8.829    53.097    0.11E-02    0.11E-02    0.13E-06
   1      8     8.829    32.621    0.11E-02    0.10E-02    0.12E-06
   2      8     8.829     8.820    0.59E-03    0.37E-03    0.10E-06
 Optimization of the real space projectors (new method)

 maximal supplied QI-value         = 17.95
 optimisation between [QCUT,QGAM] = [  8.80, 17.59] = [ 21.67, 86.68] Ry 
 Optimized for a Real-space Cutoff    1.19 Angstroem

   l    n(q)    QCUT    max X(q) W(low)/X(q) W(high)/X(q)  e(spline) 
   0      6     8.797   133.320    0.14E-02    0.11E-02    0.95E-07
   0      6     8.797   111.601    0.15E-02    0.12E-02    0.10E-06
   1      6     8.797    47.222    0.19E-02    0.96E-03    0.11E-06
   1      6     8.797    33.775    0.19E-02    0.99E-03    0.11E-06
   2      5     8.797     3.720    0.16E-02    0.14E-02    0.40E-07
  PAW_PBE Li 17Jan2003                  :
 energy of atom  1       EATOM=   -5.3001
 kinetic energy error for atom=    0.0000 (will be added to EATOM!!)
  PAW_PBE In 08Apr2002                  :
 energy of atom  2       EATOM=  -53.7908
 kinetic energy error for atom=    0.0001 (will be added to EATOM!!)
  PAW_PBE Se 06Sep2000                  :
 energy of atom  3       EATOM= -257.1286
 kinetic energy error for atom=    0.0040 (will be added to EATOM!!)
 
 
 POSCAR: Li4 In4 Se8                             
  positions in direct lattice
  velocities in cartesian coordinates
 exchange correlation table for  LEXCH =        8
   RHO(1)=    0.500       N(1)  =     2000
   RHO(2)=  100.500       N(2)  =     4000
 


--------------------------------------------------------------------------------------------------------


 ion  position               nearest neighbor table
   1  0.619  0.586  0.123-  12 2.60  11 2.61  15 2.62  16 2.64
   2  0.119  0.914  0.623-   9 2.60  10 2.61  13 2.62  14 2.64
   3  0.619  0.086  0.377-  11 2.60  12 2.61  14 2.62  13 2.64
   4  0.119  0.414  0.877-  10 2.60   9 2.61  16 2.62  15 2.64
   5  0.622  0.574  0.626-  10 2.62  13 2.63  16 2.63  12 2.63
   6  0.122  0.426  0.374-  12 2.62  14 2.63  15 2.63  10 2.63
   7  0.122  0.926  0.126-  11 2.62  15 2.63  14 2.63   9 2.63
   8  0.622  0.074  0.874-   9 2.62  16 2.63  13 2.63  11 2.63
   9  1.000  0.074  0.870-   2 2.60   4 2.61   8 2.62   7 2.63
  10  1.000  0.574  0.630-   4 2.60   2 2.61   5 2.62   6 2.63
  11  0.500  0.926  0.130-   3 2.60   1 2.61   7 2.62   8 2.63
  12  0.500  0.426  0.370-   1 2.60   3 2.61   6 2.62   5 2.63
  13  0.495  0.915  0.624-   2 2.62   5 2.63   8 2.63   3 2.64
  14  0.995  0.085  0.376-   3 2.62   6 2.63   7 2.63   2 2.64
  15  0.995  0.585  0.124-   1 2.62   7 2.63   6 2.63   4 2.64
  16  0.495  0.415  0.876-   4 2.62   8 2.63   5 2.63   1 2.64
 
  LATTYP: Found a simple orthorhombic cell.
 ALAT       =     6.9546311144
 B/A-ratio  =     1.0454325761
 C/A-ratio  =     1.2628997976
  
  Lattice vectors:
  
 A1 = (   6.9546311144,   0.0000000000,   0.0000000000)
 A2 = (   0.0000000000,   7.2705979218,   0.0000000000)
 A3 = (   0.0000000000,   0.0000000000,   8.7830022264)


Analysis of symmetry for initial positions (statically):
=====================================================================
 Subroutine PRICEL returns:
 Original cell was already a primitive cell.
 

 Routine SETGRP: Setting up the symmetry group for a 
 simple orthorhombic supercell.


 Subroutine GETGRP returns: Found  4 space group operations
 (whereof  1 operations were pure point group operations)
 out of a pool of  8 trial point group operations.


The static configuration has the point symmetry C_1 .
 The point group associated with its full space group is C_2v.


Analysis of symmetry for dynamics (positions and initial velocities):
=====================================================================
 Subroutine PRICEL returns:
 Original cell was already a primitive cell.
 

 Routine SETGRP: Setting up the symmetry group for a 
 simple orthorhombic supercell.


 Subroutine GETGRP returns: Found  4 space group operations
 (whereof  1 operations were pure point group operations)
 out of a pool of  8 trial point group operations.


The dynamic configuration has the point symmetry C_1 .
 The point group associated with its full space group is C_2v.


 Subroutine INISYM returns: Found  4 space group operations
 (whereof  1 operations are pure point group operations),
 and found     1 'primitive' translations

 
 
 KPOINTS: pymatgen with grid density = 807 / numbe

Automatic generation of k-mesh.
Space group operators:
 irot       det(A)        alpha          n_x          n_y          n_z        tau_x        tau_y        tau_z
    1     1.000000     0.000000     1.000000     0.000000     0.000000     0.000000     0.000000     0.000000
    2    -1.000000   180.000000     0.000000     0.000000     1.000000     0.000000     0.500000     0.500000
    3    -1.000000   180.000000     0.000000     1.000000     0.000000     0.500000     0.500000     0.500000
    4     1.000000   180.000000     1.000000     0.000000     0.000000     0.500000     0.000000     0.000000
 
 Subroutine IBZKPT returns following result:
 ===========================================
 
 Found      8 irreducible k-points:
 
 Following reciprocal coordinates:
            Coordinates               Weight
  0.000000  0.000000  0.000000      1.000000
  0.333333  0.000000  0.000000      2.000000
  0.000000  0.333333  0.000000      2.000000
  0.333333  0.333333  0.000000      4.000000
  0.000000  0.000000  0.333333      2.000000
  0.333333  0.000000  0.333333      4.000000
  0.000000  0.333333  0.333333      4.000000
  0.333333  0.333333  0.333333      8.000000
 
 Following cartesian coordinates:
            Coordinates               Weight
  0.000000  0.000000  0.000000      1.000000
  0.047930  0.000000  0.000000      2.000000
  0.000000  0.045847  0.000000      2.000000
  0.047930  0.045847  0.000000      4.000000
  0.000000  0.000000  0.037952      2.000000
  0.047930  0.000000  0.037952      4.000000
  0.000000  0.045847  0.037952      4.000000
  0.047930  0.045847  0.037952      8.000000
 


--------------------------------------------------------------------------------------------------------




 Dimension of arrays:
   k-points           NKPTS =      8   k-points in BZ     NKDIM =      8   number of bands    NBANDS=     42
   number of dos      NEDOS =    301   number of ions     NIONS =     16
   non local maximal  LDIM  =      5   non local SUM 2l+1 LMDIM =     13
   total plane-waves  NPLWV =  38400
   max r-space proj   IRMAX =   1653   max aug-charges    IRDMAX=   4771
   dimension x,y,z NGX =    30 NGY =   32 NGZ =   40
   dimension x,y,z NGXF=    48 NGYF=   50 NGZF=   60
   support grid    NGXF=    48 NGYF=   50 NGZF=   60
   ions per type =               4   4   8
   NGX,Y,Z   is equivalent  to a cutoff of   7.17,  7.32,  7.57 a.u.
   NGXF,Y,Z  is equivalent  to a cutoff of  11.47, 11.43, 11.36 a.u.

 SYSTEM =  CIS                                     
 POSCAR =  Li4 In4 Se8                             

 Startparameter for this run:
   NWRITE =      2    write-flag & timer
   PREC   = medium    normal or accurate (medium, high low for compatibility)
   ISTART =      0    job   : 0-new  1-cont  2-samecut
   ICHARG =      2    charge: 1-file 2-atom 10-const
   ISPIN  =      1    spin polarized calculation?
   LNONCOLLINEAR =      F non collinear calculations
   LSORBIT =      F    spin-orbit coupling
   INIWAV =      1    electr: 0-lowe 1-rand  2-diag
   LASPH  =      T    aspherical Exc in radial PAW
   METAGGA=      F    non-selfconsistent MetaGGA calc.

 Electronic Relaxation 1
   ENCUT  =  300.0 eV  22.05 Ry    4.70 a.u.   9.82 10.27 12.40*2*pi/ulx,y,z
   ENINI  =  300.0     initial cutoff
   ENAUG  =  446.8 eV  augmentation charge cutoff
   NELM   =     60;   NELMIN=  2; NELMDL= -5     # of ELM steps 
   EDIFF  = 0.1E-03   stopping-criterion for ELM
   LREAL  =      T    real-space projection
   NLSPLINE    = F    spline interpolate recip. space projectors
   LCOMPAT=      F    compatible to vasp.4.4
   GGA_COMPAT  = T    GGA compatible to vasp.4.4-vasp.4.6
   LMAXPAW     = -100 max onsite density
   LMAXMIX     =    4 max onsite mixed and CHGCAR
   VOSKOWN=      0    Vosko Wilk Nusair interpolation
   ROPT   =   -0.00200  -0.00200  -0.00200
 Ionic relaxation
   EDIFFG = -.5E-01   stopping-criterion for IOM
   NSW    =     99    number of steps for IOM
   NBLOCK =      1;   KBLOCK =     99    inner block; outer block 
   IBRION =      2    ionic relax: 0-MD 1-quasi-New 2-CG
   NFREE  =      1    steps in history (QN), initial steepest desc. (CG)
   ISIF   =      3    stress and relaxation
   IWAVPR =     11    prediction:  0-non 1-charg 2-wave 3-comb
   ISYM   =      2    0-nonsym 1-usesym 2-fastsym
   LCORR  =      T    Harris-Foulkes like correction to forces

   POTIM  = 0.1000    time-step for ionic-motion
   TEIN   =    0.0    initial temperature
   TEBEG  =    0.0;   TEEND  =   0.0 temperature during run
   SMASS  =  -3.00    Nose mass-parameter (am)
   estimated Nose-frequenzy (Omega)   =  0.10E-29 period in steps =****** mass=  -0.111E-26a.u.
   SCALEE = 1.0000    scale energy and forces
   NPACO  =    256;   APACO  = 16.0  distance and # of slots for P.C.
   PSTRESS=    0.0 pullay stress

  Mass of Ions in am
   POMASS =   7.01114.82 78.96
  Ionic Valenz
   ZVAL   =   1.00  3.00  6.00
  Atomic Wigner-Seitz radii
   RWIGS  =  -1.00 -1.00 -1.00
  virtual crystal weights 
   VCA    =   1.00  1.00  1.00
   NELECT =      64.0000    total number of electrons
   NUPDOWN=      -1.0000    fix difference up-down

 DOS related values:
   EMIN   =  10.00;   EMAX   =-10.00  energy-range for DOS
   EFERMI =   0.00
   ISMEAR =     0;   SIGMA  =   0.05  broadening in eV -4-tet -1-fermi 0-gaus

 Electronic relaxation 2 (details)
   IALGO  =     38    algorithm
   LDIAG  =      T    sub-space diagonalisation (order eigenvalues)
   LSUBROT=      F    optimize rotation matrix (better conditioning)
   TURBO    =      0    0=normal 1=particle mesh
   IRESTART =      0    0=no restart 2=restart with 2 vectors
   NREBOOT  =      0    no. of reboots
   NMIN     =      0    reboot dimension
   EREF     =   0.00    reference energy to select bands
   IMIX   =      4    mixing-type and parameters
     AMIX     =   0.40;   BMIX     =  1.00
     AMIX_MAG =   1.60;   BMIX_MAG =  1.00
     AMIN     =   0.10
     WC   =   100.;   INIMIX=   1;  MIXPRE=   1;  MAXMIX= -45

 Intra band minimization:
   WEIMIN = 0.0010     energy-eigenvalue tresh-hold
   EBREAK =  0.60E-06  absolut break condition
   DEPER  =   0.30     relativ break condition  

   TIME   =   0.40     timestep for ELM

  volume/ion in A,a.u.               =      27.76       187.31
  Fermi-wavevector in a.u.,A,eV,Ry     =   0.858300  1.621952 10.023123  0.736679
  Thomas-Fermi vector in A             =   1.975484
 
 Write flags
   LWAVE        =      F    write WAVECAR
   LDOWNSAMPLE  =      F    k-point downsampling of WAVECAR
   LCHARG       =      F    write CHGCAR
   LVTOT        =      F    write LOCPOT, total local potential
   LVHAR        =      F    write LOCPOT, Hartree potential only
   LELF         =      F    write electronic localiz. function (ELF)
   LORBIT       =     10    0 simple, 1 ext, 2 COOP (PROOUT), +10 PAW based schemes


 Dipole corrections
   LMONO  =      F    monopole corrections only (constant potential shift)
   LDIPOL =      F    correct potential (dipole corrections)
   IDIPOL =      0    1-x, 2-y, 3-z, 4-all directions 
   EPSILON=  1.0000000 bulk dielectric constant

 Exchange correlation treatment:
   GGA     =    --    GGA type
   LEXCH   =     8    internal setting for exchange type
   VOSKOWN=      0    Vosko Wilk Nusair interpolation
   LHFCALC =     F    Hartree Fock is set to
   LHFONE  =     F    Hartree Fock one center treatment
   AEXX    =    0.0000 exact exchange contribution

 Linear response parameters
   LEPSILON=     F    determine dielectric tensor
   LRPA    =     F    only Hartree local field effects (RPA)
   LNABLA  =     F    use nabla operator in PAW spheres
   LVEL    =     F    velocity operator in full k-point grid
   LINTERFAST=   F  fast interpolation
   KINTER  =     0    interpolate to denser k-point grid
   CSHIFT  =0.1000    complex shift for real part using Kramers Kronig
   OMEGAMAX=  -1.0    maximum frequency
   DEG_THRESHOLD= 0.2000000E-02 threshold for treating states as degnerate
   RTIME   =   -0.100 relaxation time in fs
  (WPLASMAI=    0.000 imaginary part of plasma frequency in eV, 0.658/RTIME)
   DFIELD  = 0.0000000 0.0000000 0.0000000 field for delta impulse in time
 
 Orbital magnetization related:
   ORBITALMAG=     F  switch on orbital magnetization
   LCHIMAG   =     F  perturbation theory with respect to B field
   DQ        =  0.001000  dq finite difference perturbation B field
   LLRAUG    =     F  two centre corrections for induced B field



--------------------------------------------------------------------------------------------------------


 conjugate gradient relaxation of ions
 charge density and potential will be updated during run
 non-spin polarized calculation
 Variant of blocked Davidson
 Davidson routine will perform the subspace rotation
 perform sub-space diagonalisation
    after iterative eigenvector-optimisation
 modified Broyden-mixing scheme, WC =      100.0
 initial mixing is a Kerker type mixing with AMIX =  0.4000 and BMIX =      1.0000
 Hartree-type preconditioning will be used
 using additional bands           10
 real space projection scheme for non local part
 use partial core corrections
 calculate Harris-corrections to forces 
   (improved forces if not selfconsistent)
 use gradient corrections 
 use of overlap-Matrix (Vanderbilt PP)
 Gauss-broadening in eV      SIGMA  =   0.05


--------------------------------------------------------------------------------------------------------


  energy-cutoff  :      300.00
  volume of cell :      444.11
      direct lattice vectors                 reciprocal lattice vectors
     6.954631114  0.000000000  0.000000000     0.143789079  0.000000000  0.000000000
     0.000000000  7.270597922  0.000000000     0.000000000  0.137540270  0.000000000
     0.000000000  0.000000000  8.783002226     0.000000000  0.000000000  0.113856284

  length of vectors
     6.954631114  7.270597922  8.783002226     0.143789079  0.137540270  0.113856284


 
 k-points in units of 2pi/SCALE and weight: pymatgen with grid density = 807 / numbe
   0.00000000  0.00000000  0.00000000       0.037
   0.04792969  0.00000000  0.00000000       0.074
   0.00000000  0.04584676  0.00000000       0.074
   0.04792969  0.04584676  0.00000000       0.148
   0.00000000  0.00000000  0.03795209       0.074
   0.04792969  0.00000000  0.03795209       0.148
   0.00000000  0.04584676  0.03795209       0.148
   0.04792969  0.04584676  0.03795209       0.296
 
 k-points in reciprocal lattice and weights: pymatgen with grid density = 807 / numbe
   0.00000000  0.00000000  0.00000000       0.037
   0.33333333  0.00000000  0.00000000       0.074
   0.00000000  0.33333333  0.00000000       0.074
   0.33333333  0.33333333  0.00000000       0.148
   0.00000000  0.00000000  0.33333333       0.074
   0.33333333  0.00000000  0.33333333       0.148
   0.00000000  0.33333333  0.33333333       0.148
   0.33333333  0.33333333  0.33333333       0.296
 
 position of ions in fractional coordinates (direct lattice) 
   0.61885975  0.58578632  0.12260302
   0.11885975  0.91421368  0.62260302
   0.61885975  0.08578632  0.37739698
   0.11885975  0.41421368  0.87739698
   0.62243813  0.57359716  0.62641813
   0.12243813  0.42640284  0.37358187
   0.12243813  0.92640284  0.12641813
   0.62243813  0.07359716  0.87358187
   0.99966077  0.07400380  0.87043818
   0.99966077  0.57400380  0.62956182
   0.49966077  0.92599620  0.12956182
   0.49966077  0.42599620  0.37043818
   0.49525036  0.91462603  0.62373564
   0.99525036  0.08537397  0.37626436
   0.99525036  0.58537397  0.12373564
   0.49525036  0.41462603  0.87626436
 
 position of ions in cartesian coordinates  (Angst):
   4.30394124  4.25901679  1.07682256
   0.82662568  6.64688009  5.46832367
   4.30394124  0.62371783  3.31467855
   0.82662568  3.01158113  7.70617967
   4.32882760  4.17039435  5.50183187
   0.85151204  3.10020357  3.28117036
   0.85151204  6.73550253  1.11033075
   4.32882760  0.53509539  7.67267147
   6.95227188  0.53805184  7.64506044
   6.95227188  4.17335080  5.52944290
   3.47495632  6.73254608  1.13794179
   3.47495632  3.09724712  3.25355933
   3.44428353  6.64987813  5.47827151
   6.92159909  0.62071979  3.30473072
   6.92159909  4.25601875  1.08677040
   3.44428353  3.01457917  7.69623183
 


--------------------------------------------------------------------------------------------------------


 k-point  1 :   0.0000 0.0000 0.0000  plane waves:    5227
 k-point  2 :   0.3333 0.0000 0.0000  plane waves:    5248
 k-point  3 :   0.0000 0.3333 0.0000  plane waves:    5256
 k-point  4 :   0.3333 0.3333 0.0000  plane waves:    5259
 k-point  5 :   0.0000 0.0000 0.3333  plane waves:    5251
 k-point  6 :   0.3333 0.0000 0.3333  plane waves:    5254
 k-point  7 :   0.0000 0.3333 0.3333  plane waves:    5223
 k-point  8 :   0.3333 0.3333 0.3333  plane waves:    5234

 maximum and minimum number of plane-waves per node :      5259     5223

 maximum number of plane-waves:      5259
 maximum index in each direction: 
   IXMAX=    9   IYMAX=   10   IZMAX=   12
   IXMIN=  -10   IYMIN=  -10   IZMIN=  -12


 serial   3D FFT for wavefunctions
 parallel 3D FFT for charge:
    minimum data exchange during FFTs selected (reduces bandwidth)


 total amount of memory used by VASP MPI-rank0    36928. kBytes
=======================================================================

   base      :      30000. kBytes
   nonlr-proj:       1788. kBytes
   fftplans  :        582. kBytes
   grid      :       2338. kBytes
   one-center:        129. kBytes
   wavefun   :       2091. kBytes
 
     INWAV:  cpu time    0.0000: real time    0.0001
 Broyden mixing: mesh for mixing (old mesh)
   NGX = 19   NGY = 21   NGZ = 25
  (NGX  = 48   NGY  = 50   NGZ  = 60)
  gives a total of   9975 points

 initial charge density was supplied:
 charge density of overlapping atoms calculated
 number of electron      64.0000000 magnetization 
 keeping initial charge density in first step


--------------------------------------------------------------------------------------------------------


 Maximum index for non-local projection operator         1563
 Maximum index for augmentation-charges          335 (set IRDMAX)


--------------------------------------------------------------------------------------------------------


 First call to EWALD:  gamma=   0.232
 Maximum number of real-space cells 3x 3x 2
 Maximum number of reciprocal cells 3x 3x 3

    FEWALD:  cpu time    0.0021: real time    0.0021


--------------------------------------- Iteration      1(   1)  ---------------------------------------


    POTLOK:  cpu time    0.0094: real time    0.0100
    SETDIJ:  cpu time    0.1641: real time    0.1643
     EDDAV:  cpu time    0.2667: real time    0.2714
       DOS:  cpu time    0.0004: real time    0.0004
    --------------------------------------------
      LOOP:  cpu time    0.4406: real time    0.4462

 eigenvalue-minimisations  :   672
 total energy-change (2. order) : 0.2448864E+03  (-0.1724183E+04)
 number of electron      64.0000000 magnetization 
 augmentation part       64.0000000 magnetization 

 Free energy of the ion-electron system (eV)
  ---------------------------------------------------
  alpha Z        PSCENC =        67.90880072
  Ewald energy   TEWEN  =     -1949.34869083
  -Hartree energ DENC   =      -340.55033549
  -exchange      EXHF   =         0.00000000
  -V(xc)+E(xc)   XCENC  =      -246.93397029
  PAW double counting   =      2089.94512839    -1720.00351858
  entropy T*S    EENTRO =        -0.01139258
  eigenvalues    EBANDS =        50.52043787
  atomic energy  EATOM  =      2293.35992167
  Solvation  Ediel_sol  =         0.00000000
  ---------------------------------------------------
  free energy    TOTEN  =       244.88638089 eV

  energy without entropy =      244.89777347  energy(sigma->0) =      244.89207718


--------------------------------------------------------------------------------------------------------




--------------------------------------- Iteration      1(   2)  ---------------------------------------


     EDDAV:  cpu time    0.2995: real time    0.3047
       DOS:  cpu time    0.0001: real time    0.0001
    --------------------------------------------
      LOOP:  cpu time    0.2997: real time    0.3049

 eigenvalue-minimisations  :   910
 total energy-change (2. order) :-0.2849357E+03  (-0.2806240E+03)
 number of electron      64.0000000 magnetization 
 augmentation part       64.0000000 magnetization 

 Free energy of the ion-electron system (eV)
  ---------------------------------------------------
  alpha Z        PSCENC =        67.90880072
  Ewald energy   TEWEN  =     -1949.34869083
  -Hartree energ DENC   =      -340.55033549
  -exchange      EXHF   =         0.00000000
  -V(xc)+E(xc)   XCENC  =      -246.93397029
  PAW double counting   =      2089.94512839    -1720.00351858
  entropy T*S    EENTRO =        -0.00000000
  eigenvalues    EBANDS =      -234.42663789
  atomic energy  EATOM  =      2293.35992167
  Solvation  Ediel_sol  =         0.00000000
  ---------------------------------------------------
  free energy    TOTEN  =       -40.04930229 eV

  energy without entropy =      -40.04930229  energy(sigma->0) =      -40.04930229


--------------------------------------------------------------------------------------------------------




--------------------------------------- Iteration      1(   3)  ---------------------------------------


     EDDAV:  cpu time    0.3721: real time    0.3777
       DOS:  cpu time    0.0002: real time    0.0002
    --------------------------------------------
      LOOP:  cpu time    0.3723: real time    0.3778

 eigenvalue-minimisations  :   896
 total energy-change (2. order) :-0.2246882E+02  (-0.2241636E+02)
 number of electron      64.0000000 magnetization 
 augmentation part       64.0000000 magnetization 

 Free energy of the ion-electron system (eV)
  ---------------------------------------------------
  alpha Z        PSCENC =        67.90880072
  Ewald energy   TEWEN  =     -1949.34869083
  -Hartree energ DENC   =      -340.55033549
  -exchange      EXHF   =         0.00000000
  -V(xc)+E(xc)   XCENC  =      -246.93397029
  PAW double counting   =      2089.94512839    -1720.00351858
  entropy T*S    EENTRO =        -0.00000000
  eigenvalues    EBANDS =      -256.89545321
  atomic energy  EATOM  =      2293.35992167
  Solvation  Ediel_sol  =         0.00000000
  ---------------------------------------------------
  free energy    TOTEN  =       -62.51811761 eV

  energy without entropy =      -62.51811761  energy(sigma->0) =      -62.51811761


--------------------------------------------------------------------------------------------------------




--------------------------------------- Iteration      1(   4)  ---------------------------------------


     EDDAV:  cpu time    0.4066: real time    0.4114
       DOS:  cpu time    0.0006: real time    0.0006
    --------------------------------------------
      LOOP:  cpu time    0.4072: real time    0.4120

 eigenvalue-minimisations  :   854
 total energy-change (2. order) :-0.2679517E+00  (-0.2677995E+00)
 number of electron      64.0000000 magnetization 
 augmentation part       64.0000000 magnetization 

 Free energy of the ion-electron system (eV)
  ---------------------------------------------------
  alpha Z        PSCENC =        67.90880072
  Ewald energy   TEWEN  =     -1949.34869083
  -Hartree energ DENC   =      -340.55033549
  -exchange      EXHF   =         0.00000000
  -V(xc)+E(xc)   XCENC  =      -246.93397029
  PAW double counting   =      2089.94512839    -1720.00351858
  entropy T*S    EENTRO =        -0.00000000
  eigenvalues    EBANDS =      -257.16340492
  atomic energy  EATOM  =      2293.35992167
  Solvation  Ediel_sol  =         0.00000000
  ---------------------------------------------------
  free energy    TOTEN  =       -62.78606933 eV

  energy without entropy =      -62.78606933  energy(sigma->0) =      -62.78606933


--------------------------------------------------------------------------------------------------------




--------------------------------------- Iteration      1(   5)  ---------------------------------------


     EDDAV:  cpu time    0.3720: real time    0.3788
       DOS:  cpu time    0.0002: real time    0.0002
    CHARGE:  cpu time    0.0141: real time    0.0142
    MIXING:  cpu time    0.0004: real time    0.0005
    --------------------------------------------
      LOOP:  cpu time    0.3868: real time    0.3936

 eigenvalue-minimisations  :   896
 total energy-change (2. order) :-0.4167325E-02  (-0.4166547E-02)
 number of electron      64.0000070 magnetization 
 augmentation part      -11.3951641 magnetization 

 Broyden mixing:
  rms(total) = 0.11141E+01    rms(broyden)= 0.11140E+01
  rms(prec ) = 0.15122E+01
  weight for this iteration     100.00

 Free energy of the ion-electron system (eV)
  ---------------------------------------------------
  alpha Z        PSCENC =        67.90880072
  Ewald energy   TEWEN  =     -1949.34869083
  -Hartree energ DENC   =      -340.55033549
  -exchange      EXHF   =         0.00000000
  -V(xc)+E(xc)   XCENC  =      -246.93397029
  PAW double counting   =      2089.94512839    -1720.00351858
  entropy T*S    EENTRO =        -0.00000000
  eigenvalues    EBANDS =      -257.16757225
  atomic energy  EATOM  =      2293.35992167
  Solvation  Ediel_sol  =         0.00000000
  ---------------------------------------------------
  free energy    TOTEN  =       -62.79023665 eV

  energy without entropy =      -62.79023665  energy(sigma->0) =      -62.79023665


--------------------------------------------------------------------------------------------------------




--------------------------------------- Iteration      1(   6)  ---------------------------------------


    POTLOK:  cpu time    0.0062: real time    0.0063
    SETDIJ:  cpu time    0.1600: real time    0.1628
     EDDAV:  cpu time    0.3426: real time    0.3476
       DOS:  cpu time    0.0003: real time    0.0003
    CHARGE:  cpu time    0.0156: real time    0.0156
    MIXING:  cpu time    0.0005: real time    0.0005
    --------------------------------------------
      LOOP:  cpu time    0.5251: real time    0.5331

 eigenvalue-minimisations  :   840
 total energy-change (2. order) : 0.2572574E+01  (-0.4422792E+00)
 number of electron      64.0000066 magnetization 
 augmentation part      -11.4191046 magnetization 

 Broyden mixing:
  rms(total) = 0.69002E+00    rms(broyden)= 0.69001E+00
  rms(prec ) = 0.80967E+00
  weight for this iteration     100.00

 eigenvalues of (default mixing * dielectric matrix)
  average eigenvalue GAMMA=   1.9777
  1.9777

 Free energy of the ion-electron system (eV)
  ---------------------------------------------------
  alpha Z        PSCENC =        67.90880072
  Ewald energy   TEWEN  =     -1949.34869083
  -Hartree energ DENC   =      -363.32448194
  -exchange      EXHF   =         0.00000000
  -V(xc)+E(xc)   XCENC  =      -244.19207115
  PAW double counting   =      2673.10683153    -2304.40161194
  entropy T*S    EENTRO =        -0.00000000
  eigenvalues    EBANDS =      -233.32636078
  atomic energy  EATOM  =      2293.35992167
  Solvation  Ediel_sol  =         0.00000000
  ---------------------------------------------------
  free energy    TOTEN  =       -60.21766271 eV

  energy without entropy =      -60.21766271  energy(sigma->0) =      -60.21766271


--------------------------------------------------------------------------------------------------------




--------------------------------------- Iteration      1(   7)  ---------------------------------------


    POTLOK:  cpu time    0.0103: real time    0.0108
    SETDIJ:  cpu time    0.1634: real time    0.1674
     EDDAV:  cpu time    0.3684: real time    0.3684
       DOS:  cpu time    0.0002: real time    0.0002
    CHARGE:  cpu time    0.0131: real time    0.0131
    MIXING:  cpu time    0.0004: real time    0.0004
    --------------------------------------------
      LOOP:  cpu time    0.5559: real time    0.5604

 eigenvalue-minimisations  :   910
 total energy-change (2. order) : 0.3125121E+00  (-0.2113500E+00)
 number of electron      64.0000067 magnetization 
 augmentation part      -11.4547245 magnetization 

 Broyden mixing:
  rms(total) = 0.23594E+00    rms(broyden)= 0.23594E+00
  rms(prec ) = 0.27169E+00
  weight for this iteration     100.00

 eigenvalues of (default mixing * dielectric matrix)
  average eigenvalue GAMMA=   1.6866
  1.6866  1.6866

 Free energy of the ion-electron system (eV)
  ---------------------------------------------------
  alpha Z        PSCENC =        67.90880072
  Ewald energy   TEWEN  =     -1949.34869083
  -Hartree energ DENC   =      -377.81542017
  -exchange      EXHF   =         0.00000000
  -V(xc)+E(xc)   XCENC  =      -241.98185340
  PAW double counting   =      3485.68604416    -3117.98483976
  entropy T*S    EENTRO =        -0.00000000
  eigenvalues    EBANDS =      -219.72911298
  atomic energy  EATOM  =      2293.35992167
  Solvation  Ediel_sol  =         0.00000000
  ---------------------------------------------------
  free energy    TOTEN  =       -59.90515059 eV

  energy without entropy =      -59.90515059  energy(sigma->0) =      -59.90515059


--------------------------------------------------------------------------------------------------------




--------------------------------------- Iteration      1(   8)  ---------------------------------------


    POTLOK:  cpu time    0.0071: real time    0.0071
    SETDIJ:  cpu time    0.1627: real time    0.1627
     EDDAV:  cpu time    0.3172: real time    0.3172
       DOS:  cpu time    0.0002: real time    0.0002
    CHARGE:  cpu time    0.0150: real time    0.0150
    MIXING:  cpu time    0.0004: real time    0.0004
    --------------------------------------------
      LOOP:  cpu time    0.5026: real time    0.5027

 eigenvalue-minimisations  :   812
 total energy-change (2. order) : 0.1030907E-01  (-0.2426004E-01)
 number of electron      64.0000068 magnetization 
 augmentation part      -11.4788398 magnetization 

 Broyden mixing:
  rms(total) = 0.77466E-01    rms(broyden)= 0.77466E-01
  rms(prec ) = 0.97202E-01
  weight for this iteration     100.00

 eigenvalues of (default mixing * dielectric matrix)
  average eigenvalue GAMMA=   1.7528
  2.1706  1.5439  1.5439

 Free energy of the ion-electron system (eV)
  ---------------------------------------------------
  alpha Z        PSCENC =        67.90880072
  Ewald energy   TEWEN  =     -1949.34869083
  -Hartree energ DENC   =      -375.91521580
  -exchange      EXHF   =         0.00000000
  -V(xc)+E(xc)   XCENC  =      -241.74173605
  PAW double counting   =      3772.99910664    -3405.48139923
  entropy T*S    EENTRO =        -0.00000000
  eigenvalues    EBANDS =      -221.67562864
  atomic energy  EATOM  =      2293.35992167
  Solvation  Ediel_sol  =         0.00000000
  ---------------------------------------------------
  free energy    TOTEN  =       -59.89484153 eV

  energy without entropy =      -59.89484153  energy(sigma->0) =      -59.89484153


--------------------------------------------------------------------------------------------------------




--------------------------------------- Iteration      1(   9)  ---------------------------------------


    POTLOK:  cpu time    0.0073: real time    0.0073
    SETDIJ:  cpu time    0.1618: real time    0.1618
     EDDAV:  cpu time    0.2543: real time    0.2543
       DOS:  cpu time    0.0001: real time    0.0001
    CHARGE:  cpu time    0.0124: real time    0.0124
    MIXING:  cpu time    0.0005: real time    0.0005
    --------------------------------------------
      LOOP:  cpu time    0.4364: real time    0.4365

 eigenvalue-minimisations  :   896
 total energy-change (2. order) :-0.4137785E-02  (-0.3876699E-02)
 number of electron      64.0000067 magnetization 
 augmentation part      -11.4929225 magnetization 

 Broyden mixing:
  rms(total) = 0.30358E-01    rms(broyden)= 0.30358E-01
  rms(prec ) = 0.37241E-01
  weight for this iteration     100.00

 eigenvalues of (default mixing * dielectric matrix)
  average eigenvalue GAMMA=   1.7715
  2.2777  2.2777  1.2652  1.2652

 Free energy of the ion-electron system (eV)
  ---------------------------------------------------
  alpha Z        PSCENC =        67.90880072
  Ewald energy   TEWEN  =     -1949.34869083
  -Hartree energ DENC   =      -378.66840940
  -exchange      EXHF   =         0.00000000
  -V(xc)+E(xc)   XCENC  =      -241.32613186
  PAW double counting   =      3877.98418707    -3510.61066800
  entropy T*S    EENTRO =        -0.00000000
  eigenvalues    EBANDS =      -219.19798867
  atomic energy  EATOM  =      2293.35992167
  Solvation  Ediel_sol  =         0.00000000
  ---------------------------------------------------
  free energy    TOTEN  =       -59.89897931 eV

  energy without entropy =      -59.89897931  energy(sigma->0) =      -59.89897931


--------------------------------------------------------------------------------------------------------




--------------------------------------- Iteration      1(  10)  ---------------------------------------


    POTLOK:  cpu time    0.0068: real time    0.0069
    SETDIJ:  cpu time    0.1629: real time    0.1630
     EDDAV:  cpu time    0.3236: real time    0.3236
       DOS:  cpu time    0.0003: real time    0.0003
    CHARGE:  cpu time    0.0148: real time    0.0148
    MIXING:  cpu time    0.0009: real time    0.0009
    --------------------------------------------
      LOOP:  cpu time    0.5092: real time    0.5094

 eigenvalue-minimisations  :   840
 total energy-change (2. order) :-0.1368193E-02  (-0.7215971E-03)
 number of electron      64.0000067 magnetization 
 augmentation part      -11.4934204 magnetization 

 Broyden mixing:
  rms(total) = 0.11149E-01    rms(broyden)= 0.11149E-01
  rms(prec ) = 0.14023E-01
  weight for this iteration     100.00

 eigenvalues of (default mixing * dielectric matrix)
  average eigenvalue GAMMA=   1.8162
  2.6761  2.6761  1.0356  1.3466  1.3466

 Free energy of the ion-electron system (eV)
  ---------------------------------------------------
  alpha Z        PSCENC =        67.90880072
  Ewald energy   TEWEN  =     -1949.34869083
  -Hartree energ DENC   =      -378.24666736
  -exchange      EXHF   =         0.00000000
  -V(xc)+E(xc)   XCENC  =      -241.35581351
  PAW double counting   =      3861.84015793    -3494.44612660
  entropy T*S    EENTRO =        -0.00000000
  eigenvalues    EBANDS =      -219.61192952
  atomic energy  EATOM  =      2293.35992167
  Solvation  Ediel_sol  =         0.00000000
  ---------------------------------------------------
  free energy    TOTEN  =       -59.90034750 eV

  energy without entropy =      -59.90034750  energy(sigma->0) =      -59.90034750


--------------------------------------------------------------------------------------------------------




--------------------------------------- Iteration      1(  11)  ---------------------------------------


    POTLOK:  cpu time    0.0066: real time    0.0067
    SETDIJ:  cpu time    0.1603: real time    0.1641
     EDDAV:  cpu time    0.3148: real time    0.3148
       DOS:  cpu time    0.0002: real time    0.0002
    CHARGE:  cpu time    0.0137: real time    0.0138
    MIXING:  cpu time    0.0009: real time    0.0009
    --------------------------------------------
      LOOP:  cpu time    0.4965: real time    0.5005

 eigenvalue-minimisations  :   896
 total energy-change (2. order) :-0.7267603E-03  (-0.1469629E-03)
 number of electron      64.0000067 magnetization 
 augmentation part      -11.4939281 magnetization 

 Broyden mixing:
  rms(total) = 0.58373E-02    rms(broyden)= 0.58372E-02
  rms(prec ) = 0.66518E-02
  weight for this iteration     100.00

 eigenvalues of (default mixing * dielectric matrix)
  average eigenvalue GAMMA=   1.8987
  3.0293  2.4510  2.4510  0.9859  1.2375  1.2375

 Free energy of the ion-electron system (eV)
  ---------------------------------------------------
  alpha Z        PSCENC =        67.90880072
  Ewald energy   TEWEN  =     -1949.34869083
  -Hartree energ DENC   =      -378.66500655
  -exchange      EXHF   =         0.00000000
  -V(xc)+E(xc)   XCENC  =      -241.31563373
  PAW double counting   =      3854.07555072    -3486.68324370
  entropy T*S    EENTRO =        -0.00000000
  eigenvalues    EBANDS =      -219.23277257
  atomic energy  EATOM  =      2293.35992167
  Solvation  Ediel_sol  =         0.00000000
  ---------------------------------------------------
  free energy    TOTEN  =       -59.90107426 eV

  energy without entropy =      -59.90107426  energy(sigma->0) =      -59.90107426


--------------------------------------------------------------------------------------------------------




--------------------------------------- Iteration      1(  12)  ---------------------------------------


    POTLOK:  cpu time    0.0080: real time    0.0082
    SETDIJ:  cpu time    0.1666: real time    0.1666
     EDDAV:  cpu time    0.3714: real time    0.3714
       DOS:  cpu time    0.0002: real time    0.0002
    --------------------------------------------
      LOOP:  cpu time    0.5462: real time    0.5464

 eigenvalue-minimisations  :   882
 total energy-change (2. order) :-0.5970566E-04  (-0.3213079E-04)
 number of electron      64.0000067 magnetization 
 augmentation part      -11.4939281 magnetization 

 Free energy of the ion-electron system (eV)
  ---------------------------------------------------
  alpha Z        PSCENC =        67.90880072
  Ewald energy   TEWEN  =     -1949.34869083
  -Hartree energ DENC   =      -378.87926362
  -exchange      EXHF   =         0.00000000
  -V(xc)+E(xc)   XCENC  =      -241.29905242
  PAW double counting   =      3857.12236382    -3489.73303100
  entropy T*S    EENTRO =        -0.00000000
  eigenvalues    EBANDS =      -219.03218230
  atomic energy  EATOM  =      2293.35992167
  Solvation  Ediel_sol  =         0.00000000
  ---------------------------------------------------
  free energy    TOTEN  =       -59.90113397 eV

  energy without entropy =      -59.90113397  energy(sigma->0) =      -59.90113397


--------------------------------------------------------------------------------------------------------




 average (electrostatic) potential at core
  the test charge radii are     0.9748  1.4837  1.0808
  (the norm of the test charge is              1.0000)
       1 -28.2435       2 -28.2435       3 -28.2435       4 -28.2435       5 -41.0008
       6 -41.0008       7 -41.0008       8 -41.0008       9 -56.0396      10 -56.0396
      11 -56.0396      12 -56.0396      13 -56.0168      14 -56.0168      15 -56.0168
      16 -56.0168
 
 
 
 E-fermi :   1.1195     XC(G=0):  -7.9845     alpha+bet : -7.6419


 k-point     1 :       0.0000    0.0000    0.0000
  band No.  band energies     occupation 
      1     -11.2496      2.00000
      2     -10.7614      2.00000
      3     -10.7302      2.00000
      4     -10.4964      2.00000
      5     -10.4465      2.00000
      6     -10.3923      2.00000
      7     -10.3806      2.00000
      8     -10.3409      2.00000
      9      -4.2653      2.00000
     10      -3.8596      2.00000
     11      -3.5495      2.00000
     12      -2.8299      2.00000
     13      -1.9337      2.00000
     14      -1.7613      2.00000
     15      -1.7357      2.00000
     16      -1.6152      2.00000
     17      -1.3675      2.00000
     18      -1.2256      2.00000
     19      -0.9469      2.00000
     20      -0.7019      2.00000
     21      -0.5095      2.00000
     22      -0.4770      2.00000
     23      -0.2874      2.00000
     24      -0.2755      2.00000
     25      -0.2700      2.00000
     26      -0.1715      2.00000
     27       0.2372      2.00000
     28       0.2451      2.00000
     29       0.4332      2.00000
     30       0.6774      2.00000
     31       0.7967      2.00000
     32       0.8863      2.00000
     33       2.4528      0.00000
     34       3.2828      0.00000
     35       3.7115      0.00000
     36       3.8561      0.00000
     37       5.2923      0.00000
     38       5.4155      0.00000
     39       5.4367      0.00000
     40       6.0803      0.00000
     41       6.4562      0.00000
     42       6.6534      0.00000

 k-point     2 :       0.3333    0.0000    0.0000
  band No.  band energies     occupation 
      1     -11.1169      2.00000
      2     -10.8376      2.00000
      3     -10.6718      2.00000
      4     -10.5118      2.00000
      5     -10.4846      2.00000
      6     -10.4317      2.00000
      7     -10.4224      2.00000
      8     -10.3722      2.00000
      9      -4.2490      2.00000
     10      -3.9120      2.00000
     11      -3.6127      2.00000
     12      -3.1944      2.00000
     13      -1.6674      2.00000
     14      -1.6048      2.00000
     15      -1.5147      2.00000
     16      -1.1478      2.00000
     17      -1.1344      2.00000
     18      -1.0454      2.00000
     19      -0.9120      2.00000
     20      -0.8346      2.00000
     21      -0.6280      2.00000
     22      -0.3638      2.00000
     23      -0.3087      2.00000
     24      -0.2979      2.00000
     25      -0.1480      2.00000
     26      -0.0592      2.00000
     27       0.0972      2.00000
     28       0.1868      2.00000
     29       0.4143      2.00000
     30       0.5168      2.00000
     31       0.5298      2.00000
     32       0.7535      2.00000
     33       3.2032      0.00000
     34       3.2480      0.00000
     35       3.3213      0.00000
     36       3.7911      0.00000
     37       5.0935      0.00000
     38       5.2869      0.00000
     39       5.4604      0.00000
     40       5.5496      0.00000
     41       5.9516      0.00000
     42       6.1362      0.00000

 k-point     3 :       0.0000    0.3333    0.0000
  band No.  band energies     occupation 
      1     -11.1317      2.00000
      2     -10.8785      2.00000
      3     -10.6651      2.00000
      4     -10.5460      2.00000
      5     -10.4621      2.00000
      6     -10.4018      2.00000
      7     -10.3859      2.00000
      8     -10.3623      2.00000
      9      -4.1399      2.00000
     10      -3.9344      2.00000
     11      -3.4209      2.00000
     12      -3.1206      2.00000
     13      -1.8697      2.00000
     14      -1.8675      2.00000
     15      -1.7072      2.00000
     16      -1.5515      2.00000
     17      -1.0266      2.00000
     18      -1.0193      2.00000
     19      -0.9194      2.00000
     20      -0.6271      2.00000
     21      -0.6139      2.00000
     22      -0.4365      2.00000
     23      -0.3875      2.00000
     24      -0.2720      2.00000
     25      -0.1062      2.00000
     26       0.0645      2.00000
     27       0.1623      2.00000
     28       0.2325      2.00000
     29       0.3417      2.00000
     30       0.3788      2.00000
     31       0.5642      2.00000
     32       0.6726      2.00000
     33       3.0440      0.00000
     34       3.4808      0.00000
     35       3.5866      0.00000
     36       3.7311      0.00000
     37       5.0122      0.00000
     38       5.1707      0.00000
     39       5.6029      0.00000
     40       5.8265      0.00000
     41       5.8422      0.00000
     42       5.9203      0.00000

 k-point     4 :       0.3333    0.3333    0.0000
  band No.  band energies     occupation 
      1     -11.0065      2.00000
      2     -10.7744      2.00000
      3     -10.7479      2.00000
      4     -10.5706      2.00000
      5     -10.4954      2.00000
      6     -10.4574      2.00000
      7     -10.4295      2.00000
      8     -10.4053      2.00000
      9      -4.0996      2.00000
     10      -3.7904      2.00000
     11      -3.7667      2.00000
     12      -3.4442      2.00000
     13      -1.5715      2.00000
     14      -1.5357      2.00000
     15      -1.3496      2.00000
     16      -1.1752      2.00000
     17      -1.1682      2.00000
     18      -0.8352      2.00000
     19      -0.6439      2.00000
     20      -0.5603      2.00000
     21      -0.5392      2.00000
     22      -0.4890      2.00000
     23      -0.2837      2.00000
     24      -0.2588      2.00000
     25      -0.0862      2.00000
     26      -0.0569      2.00000
     27       0.0837      2.00000
     28       0.1173      2.00000
     29       0.2159      2.00000
     30       0.3337      2.00000
     31       0.4118      2.00000
     32       0.4122      2.00000
     33       3.2848      0.00000
     34       3.3400      0.00000
     35       3.5234      0.00000
     36       3.6724      0.00000
     37       4.9314      0.00000
     38       4.9493      0.00000
     39       5.2606      0.00000
     40       5.2987      0.00000
     41       5.5302      0.00000
     42       5.8187      0.00000

 k-point     5 :       0.0000    0.0000    0.3333
  band No.  band energies     occupation 
      1     -11.1722      2.00000
      2     -10.9736      2.00000
      3     -10.5698      2.00000
      4     -10.4810      2.00000
      5     -10.4381      2.00000
      6     -10.4242      2.00000
      7     -10.3962      2.00000
      8     -10.3507      2.00000
      9      -4.1599      2.00000
     10      -3.9782      2.00000
     11      -3.3001      2.00000
     12      -2.9546      2.00000
     13      -1.9462      2.00000
     14      -1.9433      2.00000
     15      -1.4987      2.00000
     16      -1.4714      2.00000
     17      -1.3993      2.00000
     18      -1.0506      2.00000
     19      -1.0095      2.00000
     20      -0.8790      2.00000
     21      -0.6402      2.00000
     22      -0.4652      2.00000
     23      -0.3654      2.00000
     24      -0.3578      2.00000
     25      -0.1789      2.00000
     26      -0.0808      2.00000
     27       0.0026      2.00000
     28       0.1995      2.00000
     29       0.3385      2.00000
     30       0.3992      2.00000
     31       0.6788      2.00000
     32       0.7530      2.00000
     33       3.0610      0.00000
     34       3.5021      0.00000
     35       4.1651      0.00000
     36       4.3054      0.00000
     37       5.0177      0.00000
     38       5.2326      0.00000
     39       5.6057      0.00000
     40       5.8412      0.00000
     41       6.0582      0.00000
     42       6.5909      0.00000

 k-point     6 :       0.3333    0.0000    0.3333
  band No.  band energies     occupation 
      1     -11.0520      2.00000
      2     -10.9064      2.00000
      3     -10.6616      2.00000
      4     -10.5598      2.00000
      5     -10.4790      2.00000
      6     -10.4368      2.00000
      7     -10.3917      2.00000
      8     -10.3712      2.00000
      9      -4.1582      2.00000
     10      -4.0072      2.00000
     11      -3.3989      2.00000
     12      -3.1986      2.00000
     13      -1.7183      2.00000
     14      -1.6537      2.00000
     15      -1.3171      2.00000
     16      -1.3094      2.00000
     17      -1.2106      2.00000
     18      -1.1080      2.00000
     19      -0.7982      2.00000
     20      -0.7511      2.00000
     21      -0.6175      2.00000
     22      -0.5980      2.00000
     23      -0.3965      2.00000
     24      -0.2699      2.00000
     25      -0.1808      2.00000
     26      -0.0407      2.00000
     27       0.0666      2.00000
     28       0.1574      2.00000
     29       0.3328      2.00000
     30       0.3688      2.00000
     31       0.4086      2.00000
     32       0.5865      2.00000
     33       3.5216      0.00000
     34       3.5299      0.00000
     35       3.7886      0.00000
     36       4.0665      0.00000
     37       5.3073      0.00000
     38       5.3100      0.00000
     39       5.5024      0.00000
     40       5.6457      0.00000
     41       5.9838      0.00000
     42       6.1672      0.00000

 k-point     7 :       0.0000    0.3333    0.3333
  band No.  band energies     occupation 
      1     -11.0698      2.00000
      2     -10.9369      2.00000
      3     -10.6598      2.00000
      4     -10.5850      2.00000
      5     -10.4475      2.00000
      6     -10.4101      2.00000
      7     -10.3750      2.00000
      8     -10.3592      2.00000
      9      -4.0528      2.00000
     10      -3.9527      2.00000
     11      -3.2741      2.00000
     12      -3.1177      2.00000
     13      -1.8996      2.00000
     14      -1.7264      2.00000
     15      -1.7067      2.00000
     16      -1.5728      2.00000
     17      -1.2837      2.00000
     18      -1.1676      2.00000
     19      -0.8400      2.00000
     20      -0.7002      2.00000
     21      -0.6148      2.00000
     22      -0.5003      2.00000
     23      -0.3916      2.00000
     24      -0.3273      2.00000
     25      -0.0720      2.00000
     26      -0.0392      2.00000
     27       0.0212      2.00000
     28       0.1468      2.00000
     29       0.3232      2.00000
     30       0.4519      2.00000
     31       0.5720      2.00000
     32       0.5797      2.00000
     33       3.3406      0.00000
     34       3.5564      0.00000
     35       4.0124      0.00000
     36       4.0761      0.00000
     37       5.1661      0.00000
     38       5.2022      0.00000
     39       5.5997      0.00000
     40       5.9019      0.00000
     41       5.9775      0.00000
     42       6.1934      0.00000

 k-point     8 :       0.3333    0.3333    0.3333
  band No.  band energies     occupation 
      1     -10.9542      2.00000
      2     -10.8443      2.00000
      3     -10.6814      2.00000
      4     -10.6003      2.00000
      5     -10.5123      2.00000
      6     -10.4767      2.00000
      7     -10.4224      2.00000
      8     -10.4078      2.00000
      9      -4.0138      2.00000
     10      -3.8955      2.00000
     11      -3.5423      2.00000
     12      -3.4092      2.00000
     13      -1.6044      2.00000
     14      -1.4697      2.00000
     15      -1.2826      2.00000
     16      -1.1999      2.00000
     17      -1.1485      2.00000
     18      -0.9655      2.00000
     19      -0.8517      2.00000
     20      -0.7562      2.00000
     21      -0.5884      2.00000
     22      -0.4872      2.00000
     23      -0.4358      2.00000
     24      -0.3826      2.00000
     25      -0.1565      2.00000
     26      -0.0695      2.00000
     27       0.0686      2.00000
     28       0.1597      2.00000
     29       0.2439      2.00000
     30       0.3325      2.00000
     31       0.3994      2.00000
     32       0.4476      2.00000
     33       3.4685      0.00000
     34       3.5531      0.00000
     35       3.8185      0.00000
     36       3.9473      0.00000
     37       4.9888      0.00000
     38       5.2765      0.00000
     39       5.3241      0.00000
     40       5.4842      0.00000
     41       5.7516      0.00000
     42       5.8584      0.00000


--------------------------------------------------------------------------------------------------------


 soft charge-density along one line, spin component           1
         0         1         2         3         4         5         6         7         8         9
 total charge-density along one line
 
 pseudopotential strength for first ion, spin component:           1
  1.164   5.270  -0.001  -0.000  -0.000
  5.270  22.754  -0.002  -0.001  -0.001
 -0.001  -0.002  -0.414   0.000  -0.001
 -0.000  -0.001   0.000  -0.414  -0.000
 -0.000  -0.001  -0.001  -0.000  -0.414
 total augmentation occupancy for first ion, spin component:           1
  0.788  -0.015   0.008   0.007   0.004
 -0.015   0.000  -0.000  -0.000  -0.000
  0.008  -0.000   0.060   0.000  -0.002
  0.007  -0.000   0.000   0.062  -0.001
  0.004  -0.000  -0.002  -0.001   0.060


------------------------ aborting loop because EDIFF is reached ----------------------------------------


 


 total charge     
 
# of ion       s       p       d       tot
------------------------------------------
    1        0.079   0.132   0.000   0.211
    2        0.080   0.131   0.000   0.211
    3        0.079   0.131   0.000   0.211
    4        0.080   0.132   0.000   0.212
    5        1.144   1.242   0.237   2.623
    6        1.146   1.241   0.236   2.624
    7        1.146   1.243   0.236   2.624
    8        1.144   1.243   0.236   2.623
    9        1.449   2.394   0.012   3.854
   10        1.449   2.394   0.012   3.854
   11        1.449   2.393   0.012   3.853
   12        1.449   2.394   0.012   3.855
   13        1.449   2.390   0.011   3.851
   14        1.450   2.388   0.011   3.849
   15        1.449   2.387   0.011   3.848
   16        1.449   2.387   0.011   3.848
--------------------------------------------------
tot         16.491  24.621   1.037  42.149
 
    CHARGE:  cpu time    0.0135: real time    0.0135
    FORLOC:  cpu time    0.0009: real time    0.0009
    FORNL :  cpu time    0.0689: real time    0.0689
    STRESS:  cpu time    0.1709: real time    0.1710
    FORCOR:  cpu time    0.0060: real time    0.0060
    FORHAR:  cpu time    0.0019: real time    0.0019
    MIXING:  cpu time    0.0004: real time    0.0004
    OFIELD:  cpu time    0.0000: real time    0.0000

  FORCE on cell =-STRESS in cart. coord.  units (eV):
  Direction    XX          YY          ZZ          XY          YZ          ZX
  --------------------------------------------------------------------------------------
  Alpha Z    67.90880    67.90880    67.90880
  Ewald    -632.14506  -666.15121  -651.05530     0.00000     0.00000     0.00000
  Hartree   134.95746   125.16432   118.64394    -0.00000    -0.00000    -0.00000
  E(xc)    -235.80008  -235.75513  -235.99149     0.00000    -0.00000     0.00000
  Local    -371.79069  -331.89526  -332.71175    -0.00000    -0.00000    -0.00000
  n-local   464.23493   462.02135   464.54710    -0.09992    -0.11750    -0.06598
  augment   -59.82123   -59.98412   -59.59313    -0.00000    -0.00000     0.00000
  Kinetic   633.20422   638.80519   626.39403    -0.41716     0.02240    -0.00366
  Fock        0.00000     0.00000     0.00000     0.00000     0.00000     0.00000
  -------------------------------------------------------------------------------------
  Total       0.74835     0.11394    -1.85779     0.00000     0.00000     0.00000
  in kB       2.69978     0.41104    -6.70223     0.00000     0.00000     0.00000
  external pressure =       -1.20 kB  Pullay stress =        0.00 kB


 VOLUME and BASIS-vectors are now :
 -----------------------------------------------------------------------------
  energy-cutoff  :      300.00
  volume of cell :      444.11
      direct lattice vectors                 reciprocal lattice vectors
     6.954631114  0.000000000  0.000000000     0.143789079  0.000000000  0.000000000
     0.000000000  7.270597922  0.000000000     0.000000000  0.137540270  0.000000000
     0.000000000  0.000000000  8.783002226     0.000000000  0.000000000  0.113856284

  length of vectors
     6.954631114  7.270597922  8.783002226     0.143789079  0.137540270  0.113856284


 FORCES acting on ions
    electron-ion (+dipol)            ewald-force                    non-local-force                 convergence-correction
 -----------------------------------------------------------------------------------------------
   0.470E-01 0.791E+00 0.672E+00   0.234E-02 -.649E+00 -.596E+00   -.477E-01 -.972E-01 -.799E-01   -.428E-04 -.117E-03 0.982E-04
   0.470E-01 -.791E+00 0.672E+00   0.234E-02 0.649E+00 -.596E+00   -.477E-01 0.972E-01 -.799E-01   -.428E-04 0.117E-03 0.982E-04
   0.470E-01 0.791E+00 -.672E+00   0.234E-02 -.649E+00 0.596E+00   -.477E-01 -.972E-01 0.799E-01   -.428E-04 -.117E-03 -.982E-04
   0.470E-01 -.791E+00 -.672E+00   0.234E-02 0.649E+00 0.596E+00   -.477E-01 0.972E-01 0.799E-01   -.428E-04 0.117E-03 -.982E-04
   -.206E+00 0.131E+01 -.481E+00   0.242E+00 -.105E+01 0.480E+00   -.132E+00 -.261E+00 -.245E-01   0.497E-04 0.521E-03 -.668E-04
   -.206E+00 -.131E+01 0.481E+00   0.242E+00 0.105E+01 -.480E+00   -.132E+00 0.261E+00 0.245E-01   0.497E-04 -.521E-03 0.668E-04
   -.206E+00 -.131E+01 -.481E+00   0.242E+00 0.105E+01 0.480E+00   -.132E+00 0.261E+00 -.245E-01   0.497E-04 -.521E-03 -.668E-04
   -.206E+00 0.131E+01 0.481E+00   0.242E+00 -.105E+01 -.480E+00   -.132E+00 -.261E+00 0.245E-01   0.497E-04 0.521E-03 0.668E-04
   -.871E+01 -.556E+01 0.124E+02   0.102E+02 0.652E+01 -.143E+02   -.133E+01 -.826E+00 0.188E+01   0.619E-02 0.460E-02 -.886E-02
   -.871E+01 -.556E+01 -.124E+02   0.102E+02 0.652E+01 0.143E+02   -.133E+01 -.826E+00 -.188E+01   0.619E-02 0.460E-02 0.886E-02
   -.871E+01 0.556E+01 -.124E+02   0.102E+02 -.652E+01 0.143E+02   -.133E+01 0.826E+00 -.188E+01   0.619E-02 -.460E-02 0.886E-02
   -.871E+01 0.556E+01 0.124E+02   0.102E+02 -.652E+01 -.143E+02   -.133E+01 0.826E+00 0.188E+01   0.619E-02 -.460E-02 -.886E-02
   0.903E+01 -.849E+01 0.127E+02   -.105E+02 0.949E+01 -.145E+02   0.135E+01 -.914E+00 0.182E+01   -.647E-02 0.465E-02 -.804E-02
   0.903E+01 0.849E+01 -.127E+02   -.105E+02 -.949E+01 0.145E+02   0.135E+01 0.914E+00 -.182E+01   -.647E-02 -.465E-02 0.804E-02
   0.903E+01 0.849E+01 0.127E+02   -.105E+02 -.949E+01 -.145E+02   0.135E+01 0.914E+00 0.182E+01   -.647E-02 -.465E-02 -.804E-02
   0.903E+01 -.849E+01 -.127E+02   -.105E+02 0.949E+01 0.145E+02   0.135E+01 -.914E+00 -.182E+01   -.647E-02 0.465E-02 0.804E-02
 -----------------------------------------------------------------------------------------------
   0.654E+00 -.239E-10 0.857E-04   0.178E-14 0.533E-14 0.178E-14   -.622E+00 -.222E-15 0.222E-15   -.111E-02 0.115E-13 -.385E-13
 
 
 POSITION                                       TOTAL-FORCE (eV/Angst)
 -----------------------------------------------------------------------------------
      4.30394      4.25902      1.07682        -0.000309      0.045055     -0.004087
      0.82663      6.64688      5.46832        -0.000309     -0.045055     -0.004087
      4.30394      0.62372      3.31468        -0.000309      0.045055      0.004087
      0.82663      3.01158      7.70618        -0.000309     -0.045055      0.004087
      4.32883      4.17039      5.50183        -0.097519     -0.002675     -0.026208
      0.85151      3.10020      3.28117        -0.097519      0.002675      0.026208
      0.85151      6.73550      1.11033        -0.097519      0.002675     -0.026208
      4.32883      0.53510      7.67267        -0.097519     -0.002675      0.026208
      6.95227      0.53805      7.64506         0.173986      0.134906     -0.018216
      6.95227      4.17335      5.52944         0.173986      0.134906      0.018216
      3.47496      6.73255      1.13794         0.173986     -0.134906      0.018216
      3.47496      3.09725      3.25356         0.173986     -0.134906     -0.018216
      3.44428      6.64988      5.47827        -0.076158      0.088479      0.006326
      6.92160      0.62072      3.30473        -0.076158     -0.088479     -0.006326
      6.92160      4.25602      1.08677        -0.076158     -0.088479      0.006326
      3.44428      3.01458      7.69623        -0.076158      0.088479     -0.006326
 -----------------------------------------------------------------------------------
    total drift:                                0.031066     -0.000000      0.000086


--------------------------------------------------------------------------------------------------------



  FREE ENERGIE OF THE ION-ELECTRON SYSTEM (eV)
  ---------------------------------------------------
  free  energy   TOTEN  =       -59.90113397 eV

  energy  without entropy=      -59.90113397  energy(sigma->0) =      -59.90113397
 


--------------------------------------------------------------------------------------------------------


    POTLOK:  cpu time    0.1692: real time    0.1718


--------------------------------------------------------------------------------------------------------




--------------------------------------------------------------------------------------------------------


    WAVPRE:  cpu time    0.0065: real time    0.0065
    FEWALD:  cpu time    0.0003: real time    0.0004
    GENKIN:  cpu time    0.0046: real time    0.0046
    ORTHCH:  cpu time    0.0319: real time    0.0329
     LOOP+:  cpu time    6.1217: real time    6.1703


--------------------------------------- Iteration      2(   1)  ---------------------------------------


    POTLOK:  cpu time    0.0076: real time    0.0078
    SETDIJ:  cpu time    0.1632: real time    0.1666
     EDDAV:  cpu time    0.3898: real time    0.3935
       DOS:  cpu time    0.0002: real time    0.0002
    CHARGE:  cpu time    0.0157: real time    0.0158
    MIXING:  cpu time    0.0004: real time    0.0004
    --------------------------------------------
      LOOP:  cpu time    0.5769: real time    0.5842

 eigenvalue-minimisations  :   784
 total energy-change (2. order) :-0.5033946E-02  (-0.4027442E-02)
 number of electron      64.0000055 magnetization 
 augmentation part      -11.4912775 magnetization 

 Broyden mixing:
  rms(total) = 0.12868E-01    rms(broyden)= 0.12867E-01
  rms(prec ) = 0.15941E-01
  weight for this iteration     100.00

 Free energy of the ion-electron system (eV)
  ---------------------------------------------------
  alpha Z        PSCENC =        67.94962961
  Ewald energy   TEWEN  =     -1949.91549986
  -Hartree energ DENC   =      -378.77966890
  -exchange      EXHF   =         0.00000000
  -V(xc)+E(xc)   XCENC  =      -241.29374442
  PAW double counting   =      3855.02124053    -3487.62928852
  entropy T*S    EENTRO =        -0.00000000
  eigenvalues    EBANDS =      -218.61869833
  atomic energy  EATOM  =      2293.35992167
  Solvation  Ediel_sol  =         0.00000000
  ---------------------------------------------------
  free energy    TOTEN  =       -59.90610821 eV

  energy without entropy =      -59.90610821  energy(sigma->0) =      -59.90610821


--------------------------------------------------------------------------------------------------------




--------------------------------------- Iteration      2(   2)  ---------------------------------------


    POTLOK:  cpu time    0.0091: real time    0.0093
    SETDIJ:  cpu time    0.1663: real time    0.1663
     EDDAV:  cpu time    0.3437: real time    0.3438
       DOS:  cpu time    0.0002: real time    0.0002
    CHARGE:  cpu time    0.0133: real time    0.0133
    MIXING:  cpu time    0.0004: real time    0.0004
    --------------------------------------------
      LOOP:  cpu time    0.5330: real time    0.5332

 eigenvalue-minimisations  :   896
 total energy-change (2. order) : 0.3615001E-04  (-0.2250655E-03)
 number of electron      64.0000055 magnetization 
 augmentation part      -11.4917948 magnetization 

 Broyden mixing:
  rms(total) = 0.46433E-02    rms(broyden)= 0.46432E-02
  rms(prec ) = 0.71555E-02
  weight for this iteration     100.00

 eigenvalues of (default mixing * dielectric matrix)
  average eigenvalue GAMMA=   0.9687
  0.9687

 Free energy of the ion-electron system (eV)
  ---------------------------------------------------
  alpha Z        PSCENC =        67.94962961
  Ewald energy   TEWEN  =     -1949.91549986
  -Hartree energ DENC   =      -378.61281983
  -exchange      EXHF   =         0.00000000
  -V(xc)+E(xc)   XCENC  =      -241.29918228
  PAW double counting   =      3855.56470255    -3488.17191667
  entropy T*S    EENTRO =        -0.00000000
  eigenvalues    EBANDS =      -218.78090725
  atomic energy  EATOM  =      2293.35992167
  Solvation  Ediel_sol  =         0.00000000
  ---------------------------------------------------
  free energy    TOTEN  =       -59.90607206 eV

  energy without entropy =      -59.90607206  energy(sigma->0) =      -59.90607206


--------------------------------------------------------------------------------------------------------




--------------------------------------- Iteration      2(   3)  ---------------------------------------


[...]
     24      -0.1702      2.00000
     25       0.0261      2.00000
     26       0.1263      2.00000
     27       0.2203      2.00000
     28       0.3043      2.00000
     29       0.4192      2.00000
     30       0.5367      2.00000
     31       0.7629      2.00000
     32       0.7722      2.00000
     33       3.1059      0.00000
     34       3.5526      0.00000
     35       3.6184      0.00000
     36       3.8123      0.00000
     37       5.1355      0.00000
     38       5.2479      0.00000
     39       5.7564      0.00000
     40       5.8862      0.00000
     41       5.9114      0.00000
     42       6.0214      0.00000

 k-point     4 :       0.3333    0.3333    0.0000
  band No.  band energies     occupation 
      1     -10.9195      2.00000
      2     -10.6840      2.00000
      3     -10.6516      2.00000
      4     -10.4763      2.00000
      5     -10.4086      2.00000
      6     -10.3738      2.00000
      7     -10.3314      2.00000
      8     -10.3141      2.00000
      9      -3.9936      2.00000
     10      -3.6886      2.00000
     11      -3.6820      2.00000
     12      -3.3612      2.00000
     13      -1.5249      2.00000
     14      -1.4679      2.00000
     15      -1.2945      2.00000
     16      -1.0787      2.00000
     17      -1.0776      2.00000
     18      -0.6926      2.00000
     19      -0.6039      2.00000
     20      -0.4589      2.00000
     21      -0.4476      2.00000
     22      -0.4016      2.00000
     23      -0.2050      2.00000
     24      -0.1778      2.00000
     25       0.0148      2.00000
     26       0.0657      2.00000
     27       0.1806      2.00000
     28       0.1910      2.00000
     29       0.3427      2.00000
     30       0.4366      2.00000
     31       0.4767      2.00000
     32       0.5934      2.00000
     33       3.3442      0.00000
     34       3.3935      0.00000
     35       3.5815      0.00000
     36       3.7368      0.00000
     37       5.0264      0.00000
     38       5.0448      0.00000
     39       5.3484      0.00000
     40       5.3859      0.00000
     41       5.6334      0.00000
     42       5.8464      0.00000

 k-point     5 :       0.0000    0.0000    0.3333
  band No.  band energies     occupation 
      1     -11.0802      2.00000
      2     -10.8677      2.00000
      3     -10.4798      2.00000
      4     -10.4033      2.00000
      5     -10.3433      2.00000
      6     -10.3324      2.00000
      7     -10.3073      2.00000
      8     -10.2699      2.00000
      9      -4.0294      2.00000
     10      -3.8553      2.00000
     11      -3.2339      2.00000
     12      -2.8803      2.00000
     13      -1.8829      2.00000
     14      -1.8603      2.00000
     15      -1.4168      2.00000
     16      -1.3383      2.00000
     17      -1.3001      2.00000
     18      -0.9688      2.00000
     19      -0.9139      2.00000
     20      -0.7995      2.00000
     21      -0.5760      2.00000
     22      -0.3708      2.00000
     23      -0.3092      2.00000
     24      -0.2596      2.00000
     25      -0.1151      2.00000
     26      -0.0210      2.00000
     27       0.0992      2.00000
     28       0.3075      2.00000
     29       0.4547      2.00000
     30       0.4561      2.00000
     31       0.7966      2.00000
     32       0.8156      2.00000
     33       3.1592      0.00000
     34       3.5698      0.00000
     35       4.2867      0.00000
     36       4.4715      0.00000
     37       5.0735      0.00000
     38       5.3510      0.00000
     39       5.7113      0.00000
     40       5.9340      0.00000
     41       6.1455      0.00000
     42       6.6318      0.00000

 k-point     6 :       0.3333    0.0000    0.3333
  band No.  band energies     occupation 
      1     -10.9570      2.00000
      2     -10.7980      2.00000
      3     -10.5766      2.00000
      4     -10.4655      2.00000
      5     -10.3987      2.00000
      6     -10.3490      2.00000
      7     -10.3040      2.00000
      8     -10.2882      2.00000
      9      -4.0499      2.00000
     10      -3.9051      2.00000
     11      -3.3065      2.00000
     12      -3.1070      2.00000
     13      -1.6503      2.00000
     14      -1.5566      2.00000
     15      -1.2313      2.00000
     16      -1.2101      2.00000
     17      -1.1296      2.00000
     18      -1.0183      2.00000
     19      -0.6997      2.00000
     20      -0.6317      2.00000
     21      -0.5247      2.00000
     22      -0.4857      2.00000
     23      -0.3044      2.00000
     24      -0.1838      2.00000
     25      -0.0757      2.00000
     26       0.0080      2.00000
     27       0.1374      2.00000
     28       0.2438      2.00000
     29       0.3976      2.00000
     30       0.4450      2.00000
     31       0.5034      2.00000
     32       0.6412      2.00000
     33       3.6053      0.00000
     34       3.6254      0.00000
     35       3.8575      0.00000
     36       4.1594      0.00000
     37       5.3657      0.00000
     38       5.4097      0.00000
     39       5.6491      0.00000
     40       5.7386      0.00000
     41       6.0540      0.00000
     42       6.2643      0.00000

 k-point     7 :       0.0000    0.3333    0.3333
  band No.  band energies     occupation 
      1     -10.9770      2.00000
      2     -10.8337      2.00000
      3     -10.5745      2.00000
      4     -10.4941      2.00000
      5     -10.3682      2.00000
      6     -10.3186      2.00000
      7     -10.2814      2.00000
      8     -10.2733      2.00000
      9      -3.9122      2.00000
     10      -3.8160      2.00000
     11      -3.1995      2.00000
     12      -3.0399      2.00000
     13      -1.8184      2.00000
     14      -1.6488      2.00000
     15      -1.6230      2.00000
     16      -1.4947      2.00000
     17      -1.1792      2.00000
     18      -1.1060      2.00000
     19      -0.7542      2.00000
     20      -0.6003      2.00000
     21      -0.5473      2.00000
     22      -0.4286      2.00000
     23      -0.3184      2.00000
     24      -0.2412      2.00000
     25      -0.0037      2.00000
     26       0.0617      2.00000
     27       0.0796      2.00000
     28       0.2323      2.00000
     29       0.4238      2.00000
     30       0.5139      2.00000
     31       0.6603      2.00000
     32       0.6756      2.00000
     33       3.4146      0.00000
     34       3.6291      0.00000
     35       4.0882      0.00000
     36       4.1749      0.00000
     37       5.2661      0.00000
     38       5.3251      0.00000
     39       5.7554      0.00000
     40       5.9737      0.00000
     41       6.1387      0.00000
     42       6.2923      0.00000

 k-point     8 :       0.3333    0.3333    0.3333
  band No.  band energies     occupation 
      1     -10.8594      2.00000
      2     -10.7394      2.00000
      3     -10.5884      2.00000
      4     -10.5039      2.00000
      5     -10.4342      2.00000
      6     -10.3939      2.00000
      7     -10.3390      2.00000
      8     -10.3194      2.00000
      9      -3.8951      2.00000
     10      -3.7796      2.00000
     11      -3.4435      2.00000
     12      -3.3136      2.00000
     13      -1.5210      2.00000
     14      -1.3826      2.00000
     15      -1.1969      2.00000
     16      -1.1110      2.00000
     17      -1.0695      2.00000
     18      -0.8550      2.00000
     19      -0.7513      2.00000
     20      -0.6748      2.00000
     21      -0.5042      2.00000
     22      -0.3975      2.00000
     23      -0.3561      2.00000
     24      -0.2954      2.00000
     25      -0.0909      2.00000
     26       0.0082      2.00000
     27       0.1339      2.00000
     28       0.2509      2.00000
     29       0.2993      2.00000
     30       0.4074      2.00000
     31       0.4697      2.00000
     32       0.5119      2.00000
     33       3.5385      0.00000
     34       3.6382      0.00000
     35       3.8814      0.00000
     36       4.0213      0.00000
     37       5.0732      0.00000
     38       5.3727      0.00000
     39       5.4423      0.00000
     40       5.6062      0.00000
     41       5.9061      0.00000
     42       5.9835      0.00000


--------------------------------------------------------------------------------------------------------


 soft charge-density along one line, spin component           1
         0         1         2         3         4         5         6         7         8         9
 total charge-density along one line
 
 pseudopotential strength for first ion, spin component:           1
  1.166   5.274  -0.000  -0.000  -0.000
  5.274  22.747  -0.001  -0.000  -0.000
 -0.000  -0.001  -0.402   0.000  -0.000
 -0.000  -0.000   0.000  -0.402  -0.000
 -0.000  -0.000  -0.000  -0.000  -0.402
 total augmentation occupancy for first ion, spin component:           1
  0.849  -0.017   0.005   0.006   0.001
 -0.017   0.000  -0.000  -0.000  -0.000
  0.005  -0.000   0.069   0.000  -0.001
  0.006  -0.000   0.000   0.066  -0.000
  0.001  -0.000  -0.001  -0.000   0.066


------------------------ aborting loop because EDIFF is reached ----------------------------------------


 


 total charge     
 
# of ion       s       p       d       tot
------------------------------------------
    1        0.085   0.145   0.000   0.230
    2        0.086   0.145   0.000   0.231
    3        0.085   0.145   0.000   0.230
    4        0.086   0.145   0.000   0.231
    5        1.144   1.229   0.232   2.605
    6        1.145   1.229   0.231   2.605
    7        1.145   1.230   0.231   2.606
    8        1.143   1.230   0.232   2.605
    9        1.449   2.395   0.012   3.856
   10        1.449   2.395   0.012   3.856
   11        1.449   2.394   0.012   3.855
   12        1.449   2.396   0.012   3.857
   13        1.450   2.393   0.012   3.854
   14        1.450   2.390   0.011   3.852
   15        1.450   2.389   0.012   3.851
   16        1.450   2.389   0.012   3.851
--------------------------------------------------
tot         16.516  24.639   1.019  42.175
 
    CHARGE:  cpu time    0.0137: real time    0.0147
    FORLOC:  cpu time    0.0009: real time    0.0009
    FORNL :  cpu time    0.0638: real time    0.0648
    STRESS:  cpu time    0.2110: real time    0.2120
    FORCOR:  cpu time    0.0079: real time    0.0079
    FORHAR:  cpu time    0.0029: real time    0.0029
    MIXING:  cpu time    0.0005: real time    0.0005
    OFIELD:  cpu time    0.0000: real time    0.0000

  FORCE on cell =-STRESS in cart. coord.  units (eV):
  Direction    XX          YY          ZZ          XY          YZ          ZX
  --------------------------------------------------------------------------------------
  Alpha Z    69.13784    69.13784    69.13784
  Ewald    -643.19120  -666.11054  -657.65757     0.00000    -0.00000     0.00000
  Hartree   129.33675   120.16780   118.99751    -0.00000    -0.00000    -0.00000
  E(xc)    -235.74973  -235.93784  -236.06989     0.00000    -0.00000    -0.00000
  Local    -356.38070  -326.49655  -329.36091    -0.00000     0.00000    -0.00000
  n-local   462.85145   463.07929   464.22329    -0.08280    -0.11695    -0.06466
  augment   -59.70770   -60.01260   -59.72458    -0.00000    -0.00000     0.00000
  Kinetic   633.68585   636.37978   630.65217    -0.34635     0.04397     0.00080
  Fock        0.00000     0.00000     0.00000     0.00000     0.00000     0.00000
  -------------------------------------------------------------------------------------
  Total      -0.01745     0.20718     0.19784     0.00000     0.00000     0.00000
  in kB      -0.06408     0.76097     0.72666     0.00000     0.00000     0.00000
  external pressure =        0.47 kB  Pullay stress =        0.00 kB


 VOLUME and BASIS-vectors are now :
 -----------------------------------------------------------------------------
  energy-cutoff  :      300.00
  volume of cell :      436.21
      direct lattice vectors                 reciprocal lattice vectors
     6.946145804  0.000000000  0.000000000     0.143964729  0.000000000  0.000000000
     0.000000000  7.334381771  0.000000000     0.000000000  0.136344143  0.000000000
     0.000000000  0.000000000  8.562292163     0.000000000  0.000000000  0.116791156

  length of vectors
     6.946145804  7.334381771  8.562292163     0.143964729  0.136344143  0.116791156


 FORCES acting on ions
    electron-ion (+dipol)            ewald-force                    non-local-force                 convergence-correction
 -----------------------------------------------------------------------------------------------
   -.116E+00 0.352E+00 0.611E+00   0.124E+00 -.292E+00 -.546E+00   -.750E-02 -.625E-01 -.675E-01   -.235E-03 -.116E-03 0.105E-03
   -.116E+00 -.352E+00 0.611E+00   0.124E+00 0.292E+00 -.546E+00   -.750E-02 0.625E-01 -.675E-01   -.235E-03 0.116E-03 0.105E-03
   -.116E+00 0.352E+00 -.611E+00   0.124E+00 -.292E+00 0.546E+00   -.750E-02 -.625E-01 0.675E-01   -.235E-03 -.116E-03 -.105E-03
   -.116E+00 -.352E+00 -.611E+00   0.124E+00 0.292E+00 0.546E+00   -.750E-02 0.625E-01 0.675E-01   -.235E-03 0.116E-03 -.105E-03
   -.108E+01 0.175E+00 -.461E+00   0.968E+00 -.121E+00 0.425E+00   0.111E+00 -.280E-01 0.414E-01   -.953E-04 0.342E-02 0.252E-02
   -.108E+01 -.175E+00 0.461E+00   0.968E+00 0.121E+00 -.425E+00   0.111E+00 0.280E-01 -.414E-01   -.953E-04 -.342E-02 -.252E-02
   -.108E+01 -.175E+00 -.461E+00   0.968E+00 0.121E+00 0.425E+00   0.111E+00 0.280E-01 0.414E-01   -.953E-04 -.342E-02 0.252E-02
   -.108E+01 0.175E+00 0.461E+00   0.968E+00 -.121E+00 -.425E+00   0.111E+00 -.280E-01 -.414E-01   -.953E-04 0.342E-02 -.252E-02
   -.689E+01 -.579E+01 0.109E+02   0.831E+01 0.679E+01 -.127E+02   -.143E+01 -.102E+01 0.190E+01   -.237E-03 0.140E-01 -.199E-01
   -.689E+01 -.579E+01 -.109E+02   0.831E+01 0.679E+01 0.127E+02   -.143E+01 -.102E+01 -.190E+01   -.237E-03 0.140E-01 0.199E-01
   -.689E+01 0.579E+01 -.109E+02   0.831E+01 -.679E+01 0.127E+02   -.143E+01 0.102E+01 -.190E+01   -.237E-03 -.140E-01 0.199E-01
   -.689E+01 0.579E+01 0.109E+02   0.831E+01 -.679E+01 -.127E+02   -.143E+01 0.102E+01 0.190E+01   -.237E-03 -.140E-01 -.199E-01
   0.795E+01 -.675E+01 0.109E+02   -.940E+01 0.776E+01 -.127E+02   0.147E+01 -.998E+00 0.181E+01   -.336E-02 0.451E-03 -.360E-02
   0.795E+01 0.675E+01 -.109E+02   -.940E+01 -.776E+01 0.127E+02   0.147E+01 0.998E+00 -.181E+01   -.336E-02 -.451E-03 0.360E-02
   0.795E+01 0.675E+01 0.109E+02   -.940E+01 -.776E+01 -.127E+02   0.147E+01 0.998E+00 0.181E+01   -.336E-02 -.451E-03 -.360E-02
   0.795E+01 -.675E+01 -.109E+02   -.940E+01 0.776E+01 0.127E+02   0.147E+01 -.998E+00 -.181E+01   -.336E-02 0.451E-03 0.360E-02
 -----------------------------------------------------------------------------------------------
   -.573E+00 -.232E-10 0.330E-04   0.533E-14 0.124E-13 0.178E-14   0.583E+00 0.222E-15 -.444E-15   -.157E-01 0.336E-12 0.315E-12
 
 
 POSITION                                       TOTAL-FORCE (eV/Angst)
 -----------------------------------------------------------------------------------
      4.30357      4.31442      1.04739         0.000178     -0.002616     -0.002227
      0.83049      6.68715      5.32854         0.000178      0.002616     -0.002227
      4.30357      0.64723      3.23375         0.000178     -0.002616      0.002227
      0.83049      3.01996      7.51490         0.000178      0.002616      0.002227
      4.32125      4.23944      5.35145         0.001041      0.029371      0.007285
      0.84818      3.09494      3.21084         0.001041     -0.029371     -0.007285
      0.84818      6.76213      1.07031         0.001041     -0.029371      0.007285
      4.32125      0.57225      7.49199         0.001041      0.029371     -0.007285
      0.01985      0.59411      7.42662        -0.013040     -0.010140      0.019397
      0.01985      4.26130      5.41682        -0.013040     -0.010140     -0.019397
      3.49293      6.74028      1.13568        -0.013040      0.010140     -0.019397
      3.49293      3.07309      3.14547        -0.013040      0.010140      0.019397
      3.41529      6.71817      5.31947         0.011820      0.016243      0.005349
      6.88836      0.61621      3.24282         0.011820     -0.016243     -0.005349
      6.88836      4.28340      1.03832         0.011820     -0.016243      0.005349
      3.41529      3.05098      7.52397         0.011820      0.016243     -0.005349
 -----------------------------------------------------------------------------------
    total drift:                               -0.005916     -0.000000      0.000033


--------------------------------------------------------------------------------------------------------



  FREE ENERGIE OF THE ION-ELECTRON SYSTEM (eV)
  ---------------------------------------------------
  free  energy   TOTEN  =       -59.95385026 eV

  energy  without entropy=      -59.95385026  energy(sigma->0) =      -59.95385026
 
 d Force = 0.1121561E-02[ 0.648E-03, 0.160E-02]  d Energy = 0.1220468E-02-0.989E-04
 d Force =-0.2057496E+00[-0.207E+00,-0.205E+00]  d Ewald  =-0.5635907E+00 0.358E+00


--------------------------------------------------------------------------------------------------------


    POTLOK:  cpu time    0.1740: real time    0.1741


--------------------------------------------------------------------------------------------------------


 Conjugate gradient step on ions:
 trial-energy change:   -0.001220  1 .order   -0.001206   -0.001656   -0.000755
  (g-gl).g = 0.365E-04      g.g   = 0.267E-03  gl.gl    = 0.131E-02
 g(Force)  = 0.256E-03   g(Stress)= 0.105E-04 ortho     = 0.531E-04
 gamma     =   0.02793
 trial     =   6.17358
 opt step  =  11.34719  (harmonic =  11.34719) maximal distance =0.00562896
 next E    =   -59.954152   (d E  =  -0.00152)


--------------------------------------------------------------------------------------------------------


  
 reached required accuracy - stopping structural energy minimisation
     LOOP+:  cpu time    2.1524: real time    2.1621
    4ORBIT:  cpu time    0.0000: real time    0.0000
 


 total charge     
 
# of ion       s       p       d       tot
------------------------------------------
    1        0.085   0.145   0.000   0.230
    2        0.086   0.145   0.000   0.231
    3        0.085   0.145   0.000   0.230
    4        0.086   0.145   0.000   0.231
    5        1.144   1.229   0.232   2.605
    6        1.145   1.229   0.231   2.605
    7        1.145   1.230   0.231   2.606
    8        1.143   1.230   0.232   2.605
    9        1.449   2.395   0.012   3.856
   10        1.449   2.395   0.012   3.856
   11        1.449   2.394   0.012   3.855
   12        1.449   2.396   0.012   3.857
   13        1.450   2.393   0.012   3.854
   14        1.450   2.390   0.011   3.852
   15        1.450   2.389   0.012   3.851
   16        1.450   2.389   0.012   3.851
--------------------------------------------------
tot         16.516  24.639   1.019  42.175
 

 total amount of memory used by VASP MPI-rank0    36928. kBytes
=======================================================================

   base      :      30000. kBytes
   nonlr-proj:       1788. kBytes
   fftplans  :        582. kBytes
   grid      :       2338. kBytes
   one-center:        129. kBytes
   wavefun   :       2091. kBytes
 
  
  
 General timing and accounting informations for this job:
 ========================================================
  
                  Total CPU time used (sec):       34.612
                            User time (sec):       33.860
                          System time (sec):        0.752
                         Elapsed time (sec):       34.919
  
                   Maximum memory used (kb):       68992.
                   Average memory used (kb):           0.
  
                          Minor page faults:        42694
                          Major page faults:            0
                 Voluntary context switches:          192
