PROCAR new format
# of k-points:    8         # of bands:   42         # of ions:   16

 k-point     1 :    0.00000000 0.00000000 0.00000000     weight = 0.03703704

band     1 # energy  -11.16454551 # occ.  2.00000000
 
ion      s      p      d    tot
    1  0.001  0.000  0.000  0.001
    2  0.001  0.000  0.000  0.001
    3  0.001  0.000  0.000  0.001
    4  0.001  0.000  0.000  0.001
    5  0.030  0.000  0.000  0.030
    6  0.030  0.000  0.000  0.030
    7  0.030  0.000  0.000  0.030
    8  0.030  0.000  0.000  0.030
    9  0.082  0.000  0.000  0.082
   10  0.082  0.000  0.000  0.082
   11  0.082  0.000  0.000  0.082
   12  0.082  0.000  0.000  0.082
   13  0.073  0.000  0.000  0.073
   14  0.073  0.000  0.000  0.073
   15  0.073  0.000  0.000  0.073
   16  0.073  0.000  0.000  0.073
tot    0.747  0.002  0.000  0.750
 
band     2 # energy  -10.66013699 # occ.  2.00000000
 
ion      s      p      d    tot
    1  0.000  0.001  0.000  0.001
    2  0.000  0.001  0.000  0.001
    3  0.000  0.001  0.000  0.001
    4  0.000  0.001  0.000  0.001
    5  0.019  0.005  0.001  0.025
    6  0.019  0.005  0.001  0.025
    7  0.019  0.005  0.001  0.025
    8  0.019  0.005  0.001  0.025
    9  0.168  0.000  0.000  0.169
   10  0.168  0.000  0.000  0.169
   11  0.168  0.000  0.000  0.169
   12  0.168  0.000  0.000  0.169
   13  0.000  0.000  0.000  0.000
   14  0.000  0.000  0.000  0.000
   15  0.000  0.000  0.000  0.000
   16  0.000  0.000  0.000  0.000
tot    0.748  0.024  0.005  0.778
 
band     3 # energy  -10.62210766 # occ.  2.00000000
 
ion      s      p      d    tot
    1  0.000  0.001  0.000  0.001
    2  0.000  0.001  0.000  0.001
    3  0.000  0.001  0.000  0.001
    4  0.000  0.001  0.000  0.001
    5  0.018  0.005  0.001  0.024
    6  0.018  0.005  0.001  0.024
    7  0.018  0.005  0.001  0.024
    8  0.018  0.005  0.001  0.024
    9  0.001  0.000  0.000  0.001
   10  0.001  0.000  0.000  0.001
   11  0.001  0.000  0.000  0.001
   12  0.001  0.000  0.000  0.001
   13  0.168  0.000  0.000  0.168
   14  0.168  0.000  0.000  0.168
   15  0.168  0.000  0.000  0.168
   16  0.168  0.000  0.000  0.168
tot    0.747  0.025  0.005  0.777
 
band     4 # energy  -10.41744242 # occ.  2.00000000
 
ion      s      p      d    tot
    1  0.001  0.000  0.000  0.001
    2  0.001  0.000  0.000  0.001
    3  0.001  0.000  0.000  0.001
    4  0.001  0.000  0.000  0.001
    5  0.000  0.010  0.003  0.013
    6  0.000  0.010  0.003  0.013
    7  0.000  0.010  0.003  0.013
    8  0.000  0.010  0.003  0.013
    9  0.177  0.000  0.000  0.177
   10  0.177  0.000  0.000  0.177
   11  0.177  0.000  0.000  0.177
   12  0.177  0.000  0.000  0.177
   13  0.001  0.000  0.000  0.001
   14  0.001  0.000  0.000  0.001
   15  0.001  0.000  0.000  0.001
   16  0.001  0.000  0.000  0.001
tot    0.716  0.044  0.010  0.770
 
band     5 # energy  -10.36843316 # occ.  2.00000000
 
ion      s      p      d    tot
    1  0.001  0.000  0.000  0.001
    2  0.001  0.000  0.000  0.001
    3  0.001  0.000  0.000  0.001
    4  0.001  0.000  0.000  0.001
    5  0.000  0.010  0.003  0.013
    6  0.000  0.010  0.003  0.013
    7  0.000  0.010  0.003  0.013
    8  0.000  0.010  0.003  0.013
    9  0.000  0.000  0.000  0.000
   10  0.000  0.000  0.000  0.000
   11  0.000  0.000  0.000  0.000
   12  0.000  0.000  0.000  0.000
   13  0.178  0.000  0.000  0.178
   14  0.178  0.000  0.000  0.178
   15  0.178  0.000  0.000  0.178
   16  0.178  0.000  0.000  0.178
tot    0.716  0.044  0.010  0.770
 
band     6 # energy  -10.29690075 # occ.  2.00000000
 
ion      s      p      d    tot
    1  0.000  0.001  0.000  0.001
    2  0.000  0.001  0.000  0.001
    3  0.000  0.001  0.000  0.001
    4  0.000  0.001  0.000  0.001
    5  0.000  0.011  0.003  0.013
    6  0.000  0.011  0.003  0.013
    7  0.000  0.011  0.003  0.013
    8  0.000  0.011  0.003  0.013
    9  0.178  0.000  0.000  0.178
   10  0.178  0.000  0.000  0.178
   11  0.178  0.000  0.000  0.178
   12  0.178  0.000  0.000  0.178
   13  0.003  0.000  0.000  0.003
   14  0.003  0.000  0.000  0.003
   15  0.003  0.000  0.000  0.003
   16  0.003  0.000  0.000  0.003
tot    0.726  0.047  0.011  0.783
 
band     7 # energy  -10.27935026 # occ.  2.00000000
 
ion      s      p      d    tot
    1  0.000  0.001  0.000  0.001
    2  0.000  0.001  0.000  0.001
    3  0.000  0.001  0.000  0.001
    4  0.000  0.001  0.000  0.001
    5  0.000  0.011  0.003  0.013
    6  0.000  0.011  0.003  0.013
    7  0.000  0.011  0.003  0.013
    8  0.000  0.011  0.003  0.013
    9  0.086  0.000  0.000  0.086
   10  0.086  0.000  0.000  0.086
   11  0.086  0.000  0.000  0.086
   12  0.086  0.000  0.000  0.086
   13  0.095  0.000  0.000  0.095
   14  0.095  0.000  0.000  0.095
   15  0.095  0.000  0.000  0.095
   16  0.095  0.000  0.000  0.095
tot    0.725  0.047  0.011  0.783
 
band     8 # energy  -10.26211902 # occ.  2.00000000
 
ion      s      p      d    tot
    1  0.000  0.001  0.000  0.001
    2  0.000  0.001  0.000  0.001
    3  0.000  0.001  0.000  0.001
    4  0.000  0.001  0.000  0.001
    5  0.000  0.011  0.003  0.014
    6  0.000  0.011  0.003  0.014
    7  0.000  0.011  0.003  0.014
    8  0.000  0.011  0.003  0.014
    9  0.003  0.000  0.000  0.003
   10  0.003  0.000  0.000  0.003
   11  0.003  0.000  0.000  0.003
   12  0.003  0.000  0.000  0.003
   13  0.178  0.000  0.000  0.178
   14  0.178  0.000  0.000  0.178
   15  0.178  0.000  0.000  0.178
   16  0.178  0.000  0.000  0.178
tot    0.724  0.047  0.011  0.782
 
band     9 # energy   -4.14374882 # occ.  2.00000000
 
ion      s      p      d    tot
    1  0.000  0.000  0.000  0.000
    2  0.000  0.000  0.000  0.000
    3  0.000  0.000  0.000  0.000
    4  0.000  0.000  0.000  0.000
    5  0.148  0.000  0.000  0.149
    6  0.148  0.000  0.000  0.149
    7  0.148  0.000  0.000  0.149
    8  0.148  0.000  0.000  0.149
    9  0.000  0.023  0.001  0.023
   10  0.000  0.023  0.001  0.023
   11  0.000  0.023  0.001  0.023
   12  0.000  0.023  0.001  0.023
   13  0.000  0.027  0.001  0.028
   14  0.000  0.027  0.001  0.028
   15  0.000  0.027  0.001  0.028
   16  0.000  0.027  0.001  0.028
tot    0.593  0.202  0.007  0.801
 
band    10 # energy   -3.75679794 # occ.  2.00000000
 
ion      s      p      d    tot
    1  0.000  0.001  0.000  0.001
    2  0.000  0.001  0.000  0.001
    3  0.000  0.001  0.000  0.001
    4  0.000  0.001  0.000  0.001
    5  0.111  0.008  0.001  0.119
    6  0.111  0.008  0.001  0.119
    7  0.111  0.008  0.001  0.119
    8  0.111  0.008  0.001  0.119
    9  0.000  0.036  0.001  0.037
   10  0.000  0.036  0.001  0.037
   11  0.000  0.036  0.001  0.037
   12  0.000  0.036  0.001  0.037
   13  0.009  0.016  0.000  0.025
   14  0.009  0.016  0.000  0.025
   15  0.009  0.016  0.000  0.025
   16  0.009  0.016  0.000  0.025
tot    0.479  0.244  0.006  0.729
 
band    11 # energy   -3.49201834 # occ.  2.00000000
 
ion      s      p      d    tot
    1  0.000  0.001  0.000  0.001
    2  0.000  0.001  0.000  0.001
    3  0.000  0.001  0.000  0.001
    4  0.000  0.001  0.000  0.001
    5  0.121  0.006  0.001  0.128
    6  0.121  0.006  0.001  0.128
    7  0.121  0.006  0.001  0.128
    8  0.121  0.006  0.001  0.128
    9  0.013  0.015  0.000  0.028
   10  0.013  0.015  0.000  0.028
   11  0.013  0.015  0.000  0.028
   12  0.013  0.015  0.000  0.028
   13  0.000  0.037  0.001  0.038
   14  0.000  0.037  0.001  0.038
   15  0.000  0.037  0.001  0.038
   16  0.000  0.037  0.001  0.038
tot    0.537  0.231  0.008  0.776
 
band    12 # energy   -2.77211128 # occ.  2.00000000
 
ion      s      p      d    tot
    1  0.004  0.000  0.000  0.004
    2  0.004  0.000  0.000  0.004
    3  0.004  0.000  0.000  0.004
    4  0.004  0.000  0.000  0.004
    5  0.106  0.001  0.000  0.107
    6  0.106  0.001  0.000  0.107
    7  0.106  0.001  0.000  0.107
    8  0.106  0.001  0.000  0.107
    9  0.009  0.028  0.000  0.037
   10  0.009  0.028  0.000  0.037
   11  0.009  0.028  0.000  0.037
   12  0.009  0.028  0.000  0.037
   13  0.007  0.026  0.000  0.034
   14  0.007  0.026  0.000  0.034
   15  0.007  0.026  0.000  0.034
   16  0.007  0.026  0.000  0.034
tot    0.503  0.221  0.004  0.729
 
band    13 # energy   -1.84011304 # occ.  2.00000000
 
ion      s      p      d    tot
    1  0.001  0.002  0.000  0.003
    2  0.001  0.002  0.000  0.003
    3  0.001  0.002  0.000  0.003
    4  0.001  0.002  0.000  0.003
    5  0.002  0.054  0.001  0.058
    6  0.002  0.054  0.001  0.058
    7  0.002  0.054  0.001  0.058
    8  0.002  0.054  0.001  0.058
    9  0.000  0.057  0.000  0.057
   10  0.000  0.057  0.000  0.057
   11  0.000  0.057  0.000  0.057
   12  0.000  0.057  0.000  0.057
   13  0.001  0.028  0.000  0.029
   14  0.001  0.028  0.000  0.029
   15  0.001  0.028  0.000  0.029
   16  0.001  0.028  0.000  0.029
tot    0.015  0.566  0.005  0.586
 
band    14 # energy   -1.71002996 # occ.  2.00000000
 
ion      s      p      d    tot
    1  0.002  0.002  0.000  0.004
    2  0.002  0.002  0.000  0.004
    3  0.002  0.002  0.000  0.004
    4  0.002  0.002  0.000  0.004
    5  0.001  0.043  0.001  0.045
    6  0.001  0.043  0.001  0.045
    7  0.001  0.043  0.001  0.045
    8  0.001  0.043  0.001  0.045
    9  0.000  0.037  0.000  0.038
   10  0.000  0.037  0.000  0.038
   11  0.000  0.037  0.000  0.038
   12  0.000  0.037  0.000  0.038
   13  0.002  0.048  0.000  0.050
   14  0.002  0.048  0.000  0.050
   15  0.002  0.048  0.000  0.050
   16  0.002  0.048  0.000  0.050
tot    0.023  0.518  0.007  0.548
 
band    15 # energy   -1.67800415 # occ.  2.00000000
 
ion      s      p      d    tot
    1  0.001  0.002  0.000  0.003
    2  0.001  0.002  0.000  0.003
    3  0.001  0.002  0.000  0.003
    4  0.001  0.002  0.000  0.003
    5  0.001  0.052  0.001  0.054
    6  0.001  0.052  0.001  0.054
    7  0.001  0.052  0.001  0.054
    8  0.001  0.052  0.001  0.054
    9  0.001  0.042  0.000  0.043
   10  0.001  0.042  0.000  0.043
   11  0.001  0.042  0.000  0.043
   12  0.001  0.042  0.000  0.043
   13  0.000  0.044  0.000  0.045
   14  0.000  0.044  0.000  0.045
   15  0.000  0.044  0.000  0.045
   16  0.000  0.044  0.000  0.045
tot    0.009  0.563  0.007  0.579
 
band    16 # energy   -1.46655966 # occ.  2.00000000
 
ion      s      p      d    tot
    1  0.000  0.002  0.000  0.002
    2  0.000  0.002  0.000  0.002
    3  0.000  0.002  0.000  0.002
    4  0.000  0.002  0.000  0.002
    5  0.000  0.058  0.003  0.061
    6  0.000  0.058  0.003  0.061
    7  0.000  0.058  0.003  0.061
    8  0.000  0.058  0.003  0.061
    9  0.000  0.071  0.000  0.072
   10  0.000  0.071  0.000  0.072
   11  0.000  0.071  0.000  0.072
   12  0.000  0.071  0.000  0.072
   13  0.000  0.021  0.000  0.021
   14  0.000  0.021  0.000  0.021
   15  0.000  0.021  0.000  0.021
   16  0.000  0.021  0.000  0.021
tot    0.002  0.606  0.014  0.622
 
band    17 # energy   -1.30674821 # occ.  2.00000000
 
ion      s      p      d    tot
    1  0.002  0.004  0.000  0.005
    2  0.002  0.004  0.000  0.005
    3  0.002  0.004  0.000  0.005
    4  0.002  0.004  0.000  0.005
    5  0.000  0.035  0.002  0.037
    6  0.000  0.035  0.002  0.037
    7  0.000  0.035  0.002  0.037
    8  0.000  0.035  0.002  0.037
    9  0.000  0.048  0.000  0.048
   10  0.000  0.048  0.000  0.048
   11  0.000  0.048  0.000  0.048
   12  0.000  0.048  0.000  0.048
   13  0.001  0.043  0.000  0.044
   14  0.001  0.043  0.000  0.044
   15  0.001  0.043  0.000  0.044
   16  0.001  0.043  0.000  0.044
tot    0.014  0.520  0.008  0.542
 
band    18 # energy   -1.14149924 # occ.  2.00000000
 
ion      s      p      d    tot
    1  0.004  0.001  0.000  0.005
    2  0.004  0.001  0.000  0.005
    3  0.004  0.001  0.000  0.005
    4  0.004  0.001  0.000  0.005
    5  0.010  0.039  0.002  0.052
    6  0.010  0.039  0.002  0.052
    7  0.010  0.039  0.002  0.052
    8  0.010  0.039  0.002  0.052
    9  0.000  0.042  0.000  0.043
   10  0.000  0.042  0.000  0.043
   11  0.000  0.042  0.000  0.043
   12  0.000  0.042  0.000  0.043
   13  0.002  0.049  0.000  0.051
   14  0.002  0.049  0.000  0.051
   15  0.002  0.049  0.000  0.051
   16  0.002  0.049  0.000  0.051
tot    0.064  0.525  0.012  0.601
 
band    19 # energy   -0.79287688 # occ.  2.00000000
 
ion      s      p      d    tot
    1  0.000  0.002  0.000  0.002
    2  0.000  0.002  0.000  0.002
    3  0.000  0.002  0.000  0.002
    4  0.000  0.002  0.000  0.002
    5  0.001  0.049  0.005  0.054
    6  0.001  0.049  0.005  0.054
    7  0.001  0.049  0.005  0.054
    8  0.001  0.049  0.005  0.054
    9  0.001  0.013  0.000  0.014
   10  0.001  0.013  0.000  0.014
   11  0.001  0.013  0.000  0.014
   12  0.001  0.013  0.000  0.014
   13  0.000  0.091  0.000  0.091
   14  0.000  0.091  0.000  0.091
   15  0.000  0.091  0.000  0.091
   16  0.000  0.091  0.000  0.091
tot    0.006  0.620  0.022  0.647
 
band    20 # energy   -0.62762222 # occ.  2.00000000
 
ion      s      p      d    tot
    1  0.004  0.001  0.000  0.005
    2  0.004  0.001  0.000  0.005
    3  0.004  0.001  0.000  0.005
    4  0.004  0.001  0.000  0.005
    5  0.004  0.031  0.007  0.042
    6  0.004  0.031  0.007  0.042
    7  0.004  0.031  0.007  0.042
    8  0.004  0.031  0.007  0.042
    9  0.000  0.088  0.000  0.088
   10  0.000  0.088  0.000  0.088
   11  0.000  0.088  0.000  0.088
   12  0.000  0.088  0.000  0.088
   13  0.000  0.018  0.000  0.018
   14  0.000  0.018  0.000  0.018
   15  0.000  0.018  0.000  0.018
   16  0.000  0.018  0.000  0.018
tot    0.035  0.547  0.028  0.611
 
band    21 # energy   -0.48385399 # occ.  2.00000000
 
ion      s      p      d    tot
    1  0.008  0.003  0.000  0.011
    2  0.008  0.003  0.000  0.011
    3  0.008  0.003  0.000  0.011
    4  0.008  0.003  0.000  0.011
    5  0.000  0.008  0.003  0.011
    6  0.000  0.008  0.003  0.011
    7  0.000  0.008  0.003  0.011
    8  0.000  0.008  0.003  0.011
    9  0.000  0.016  0.000  0.016
   10  0.000  0.016  0.000  0.016
   11  0.000  0.016  0.000  0.016
   12  0.000  0.016  0.000  0.016
   13  0.000  0.090  0.000  0.090
   14  0.000  0.090  0.000  0.090
   15  0.000  0.090  0.000  0.090
   16  0.000  0.090  0.000  0.090
tot    0.034  0.466  0.012  0.512
 
band    22 # energy   -0.43287638 # occ.  2.00000000
 
ion      s      p      d    tot
    1  0.005  0.003  0.000  0.009
    2  0.005  0.003  0.000  0.009
    3  0.005  0.003  0.000  0.009
    4  0.005  0.003  0.000  0.009
    5  0.000  0.019  0.004  0.023
    6  0.000  0.019  0.004  0.023
    7  0.000  0.019  0.004  0.023
    8  0.000  0.019  0.004  0.023
    9  0.000  0.094  0.000  0.095
   10  0.000  0.094  0.000  0.095
   11  0.000  0.094  0.000  0.095
   12  0.000  0.094  0.000  0.095
   13  0.000  0.014  0.000  0.014
   14  0.000  0.014  0.000  0.014
   15  0.000  0.014  0.000  0.014
   16  0.000  0.014  0.000  0.014
tot    0.022  0.522  0.017  0.561
 
band    23 # energy   -0.25978605 # occ.  2.00000000
 
ion      s      p      d    tot
    1  0.003  0.003  0.000  0.006
    2  0.003  0.003  0.000  0.006
    3  0.003  0.003  0.000  0.006
    4  0.003  0.003  0.000  0.006
    5  0.001  0.020  0.007  0.027
    6  0.001  0.020  0.007  0.027
    7  0.001  0.020  0.007  0.027
    8  0.001  0.020  0.007  0.027
    9  0.000  0.083  0.000  0.084
   10  0.000  0.083  0.000  0.084
   11  0.000  0.083  0.000  0.084
   12  0.000  0.083  0.000  0.084
   13  0.000  0.029  0.000  0.030
   14  0.000  0.029  0.000  0.030
   15  0.000  0.029  0.000  0.030
   16  0.000  0.029  0.000  0.030
tot    0.015  0.545  0.028  0.587
 
band    24 # energy   -0.18802088 # occ.  2.00000000
 
ion      s      p      d    tot
    1  0.000  0.006  0.000  0.006
    2  0.000  0.006  0.000  0.006
    3  0.000  0.006  0.000  0.006
    4  0.000  0.006  0.000  0.006
    5  0.001  0.022  0.006  0.029
    6  0.001  0.022  0.006  0.029
    7  0.001  0.022  0.006  0.029
    8  0.001  0.022  0.006  0.029
    9  0.000  0.043  0.000  0.043
   10  0.000  0.043  0.000  0.043
   11  0.000  0.043  0.000  0.043
   12  0.000  0.043  0.000  0.043
   13  0.000  0.072  0.000  0.072
   14  0.000  0.072  0.000  0.072
   15  0.000  0.072  0.000  0.072
   16  0.000  0.072  0.000  0.072
tot    0.004  0.571  0.023  0.599
 
band    25 # energy   -0.15359867 # occ.  2.00000000
 
ion      s      p      d    tot
    1  0.001  0.003  0.000  0.004
    2  0.001  0.003  0.000  0.004
    3  0.001  0.003  0.000  0.004
    4  0.001  0.003  0.000  0.004
    5  0.000  0.030  0.006  0.036
    6  0.000  0.030  0.006  0.036
    7  0.000  0.030  0.006  0.036
    8  0.000  0.030  0.006  0.036
    9  0.000  0.037  0.000  0.038
   10  0.000  0.037  0.000  0.038
   11  0.000  0.037  0.000  0.038
   12  0.000  0.037  0.000  0.038
   13  0.000  0.077  0.000  0.078
   14  0.000  0.077  0.000  0.078
   15  0.000  0.077  0.000  0.078
   16  0.000  0.077  0.000  0.078
tot    0.007  0.593  0.024  0.624
 
band    26 # energy   -0.02441208 # occ.  2.00000000
 
ion      s      p      d    tot
    1  0.000  0.004  0.000  0.004
    2  0.000  0.004  0.000  0.004
    3  0.000  0.004  0.000  0.004
    4  0.000  0.004  0.000  0.004
    5  0.000  0.027  0.005  0.032
    6  0.000  0.027  0.005  0.032
    7  0.000  0.027  0.005  0.032
    8  0.000  0.027  0.005  0.032
    9  0.000  0.023  0.000  0.023
   10  0.000  0.023  0.000  0.023
   11  0.000  0.023  0.000  0.023
   12  0.000  0.023  0.000  0.023
   13  0.001  0.089  0.000  0.091
   14  0.001  0.089  0.000  0.091
   15  0.001  0.089  0.000  0.091
   16  0.001  0.089  0.000  0.091
tot    0.006  0.574  0.023  0.603
 
band    27 # energy    0.39308892 # occ.  2.00000000
 
ion      s      p      d    tot
    1  0.000  0.006  0.000  0.007
    2  0.000  0.006  0.000  0.007
    3  0.000  0.006  0.000  0.007
    4  0.000  0.006  0.000  0.007
    5  0.000  0.007  0.005  0.012
    6  0.000  0.007  0.005  0.012
    7  0.000  0.007  0.005  0.012
    8  0.000  0.007  0.005  0.012
    9  0.000  0.036  0.000  0.037
   10  0.000  0.036  0.000  0.037
   11  0.000  0.036  0.000  0.037
   12  0.000  0.036  0.000  0.037
   13  0.000  0.089  0.000  0.089
   14  0.000  0.089  0.000  0.089
   15  0.000  0.089  0.000  0.089
   16  0.000  0.089  0.000  0.089
tot    0.004  0.554  0.020  0.577
 
band    28 # energy    0.41582265 # occ.  2.00000000
 
ion      s      p      d    tot
    1  0.001  0.006  0.000  0.007
    2  0.001  0.006  0.000  0.007
    3  0.001  0.006  0.000  0.007
    4  0.001  0.006  0.000  0.007
    5  0.001  0.008  0.007  0.016
    6  0.001  0.008  0.007  0.016
    7  0.001  0.008  0.007  0.016
    8  0.001  0.008  0.007  0.016
    9  0.000  0.063  0.000  0.063
   10  0.000  0.063  0.000  0.063
   11  0.000  0.063  0.000  0.063
   12  0.000  0.063  0.000  0.063
   13  0.000  0.064  0.000  0.064
   14  0.000  0.064  0.000  0.064
   15  0.000  0.064  0.000  0.064
   16  0.000  0.064  0.000  0.064
tot    0.008  0.561  0.027  0.597
 
band    29 # energy    0.46764819 # occ.  2.00000000
 
ion      s      p      d    tot
    1  0.000  0.007  0.000  0.007
    2  0.000  0.007  0.000  0.007
    3  0.000  0.007  0.000  0.007
    4  0.000  0.007  0.000  0.007
    5  0.000  0.007  0.005  0.012
    6  0.000  0.007  0.005  0.012
    7  0.000  0.007  0.005  0.012
    8  0.000  0.007  0.005  0.012
    9  0.000  0.109  0.000  0.110
   10  0.000  0.109  0.000  0.110
   11  0.000  0.109  0.000  0.110
   12  0.000  0.109  0.000  0.110
   13  0.000  0.017  0.000  0.018
   14  0.000  0.017  0.000  0.018
   15  0.000  0.017  0.000  0.018
   16  0.000  0.017  0.000  0.018
tot    0.002  0.563  0.019  0.584
 
band    30 # energy    0.87969843 # occ.  2.00000000
 
ion      s      p      d    tot
    1  0.000  0.002  0.000  0.002
    2  0.000  0.002  0.000  0.002
    3  0.000  0.002  0.000  0.002
    4  0.000  0.002  0.000  0.002
    5  0.000  0.006  0.012  0.017
    6  0.000  0.006  0.012  0.017
    7  0.000  0.006  0.012  0.017
    8  0.000  0.006  0.012  0.017
    9  0.000  0.063  0.000  0.063
   10  0.000  0.063  0.000  0.063
   11  0.000  0.063  0.000  0.063
   12  0.000  0.063  0.000  0.063
   13  0.000  0.077  0.000  0.077
   14  0.000  0.077  0.000  0.077
   15  0.000  0.077  0.000  0.077
   16  0.000  0.077  0.000  0.077
tot    0.001  0.592  0.047  0.640
 
band    31 # energy    0.90717079 # occ.  2.00000000
 
ion      s      p      d    tot
    1  0.000  0.003  0.000  0.003
    2  0.000  0.003  0.000  0.003
    3  0.000  0.003  0.000  0.003
    4  0.000  0.003  0.000  0.003
    5  0.000  0.006  0.011  0.017
    6  0.000  0.006  0.011  0.017
    7  0.000  0.006  0.011  0.017
    8  0.000  0.006  0.011  0.017
    9  0.000  0.054  0.000  0.054
   10  0.000  0.054  0.000  0.054
   11  0.000  0.054  0.000  0.054
   12  0.000  0.054  0.000  0.054
   13  0.000  0.086  0.000  0.086
   14  0.000  0.086  0.000  0.086
   15  0.000  0.086  0.000  0.086
   16  0.000  0.086  0.000  0.086
tot    0.001  0.590  0.046  0.637
 
band    32 # energy    0.94472802 # occ.  2.00000000
 
ion      s      p      d    tot
    1  0.000  0.003  0.000  0.003
    2  0.000  0.003  0.000  0.003
    3  0.000  0.003  0.000  0.003
    4  0.000  0.003  0.000  0.003
    5  0.000  0.004  0.012  0.016
    6  0.000  0.004  0.012  0.016
    7  0.000  0.004  0.012  0.016
    8  0.000  0.004  0.012  0.016
    9  0.000  0.085  0.000  0.085
   10  0.000  0.085  0.000  0.085
   11  0.000  0.085  0.000  0.085
   12  0.000  0.085  0.000  0.085
   13  0.000  0.056  0.000  0.056
   14  0.000  0.056  0.000  0.056
   15  0.000  0.056  0.000  0.056
   16  0.000  0.056  0.000  0.056
tot    0.000  0.591  0.048  0.639
 
band    33 # energy    2.54228296 # occ.  0.00000000
 
ion      s      p      d    tot
    1  0.008  0.000  0.000  0.008
    2  0.008  0.000  0.000  0.008
    3  0.008  0.000  0.000  0.008
    4  0.008  0.000  0.000  0.008
    5  0.047  0.000  0.000  0.048
    6  0.047  0.000  0.000  0.048
    7  0.047  0.000  0.000  0.048
    8  0.047  0.000  0.000  0.048
    9  0.015  0.024  0.000  0.039
   10  0.015  0.024  0.000  0.039
   11  0.015  0.024  0.000  0.039
   12  0.015  0.024  0.000  0.039
   13  0.017  0.027  0.000  0.044
   14  0.017  0.027  0.000  0.044
   15  0.017  0.027  0.000  0.044
   16  0.017  0.027  0.000  0.044
tot    0.348  0.204  0.002  0.554
 
band    34 # energy    3.31874360 # occ.  0.00000000
 
ion      s      p      d    tot
    1  0.003  0.003  0.000  0.006
    2  0.003  0.003  0.000  0.006
    3  0.003  0.003  0.000  0.006
    4  0.003  0.003  0.000  0.006
    5  0.065  0.005  0.002  0.072
    6  0.065  0.005  0.002  0.072
    7  0.065  0.005  0.002  0.072
    8  0.065  0.005  0.002  0.072
    9  0.002  0.032  0.003  0.036
   10  0.002  0.032  0.003  0.036
   11  0.002  0.032  0.003  0.036
   12  0.002  0.032  0.003  0.036
   13  0.011  0.026  0.002  0.039
   14  0.011  0.026  0.002  0.039
   15  0.011  0.026  0.002  0.039
   16  0.011  0.026  0.002  0.039
tot    0.324  0.262  0.025  0.611
 
band    35 # energy    3.83269643 # occ.  0.00000000
 
ion      s      p      d    tot
    1  0.001  0.002  0.000  0.002
    2  0.001  0.002  0.000  0.002
    3  0.001  0.002  0.000  0.002
    4  0.001  0.002  0.000  0.002
    5  0.063  0.008  0.001  0.072
    6  0.063  0.008  0.001  0.072
    7  0.063  0.008  0.001  0.072
    8  0.063  0.008  0.001  0.072
    9  0.011  0.030  0.002  0.043
   10  0.011  0.030  0.002  0.043
   11  0.011  0.030  0.002  0.043
   12  0.011  0.030  0.002  0.043
   13  0.001  0.042  0.002  0.045
   14  0.001  0.042  0.002  0.045
   15  0.001  0.042  0.002  0.045
   16  0.001  0.042  0.002  0.045
tot    0.303  0.328  0.020  0.651
 
band    36 # energy    3.99842018 # occ.  0.00000000
 
ion      s      p      d    tot
    1  0.002  0.002  0.000  0.004
    2  0.002  0.002  0.000  0.004
    3  0.002  0.002  0.000  0.004
    4  0.002  0.002  0.000  0.004
    5  0.052  0.014  0.005  0.070
    6  0.052  0.014  0.005  0.070
    7  0.052  0.014  0.005  0.070
    8  0.052  0.014  0.005  0.070
    9  0.002  0.029  0.004  0.035
   10  0.002  0.029  0.004  0.035
   11  0.002  0.029  0.004  0.035
   12  0.002  0.029  0.004  0.035
   13  0.001  0.023  0.004  0.028
   14  0.001  0.023  0.004  0.028
   15  0.001  0.023  0.004  0.028
   16  0.001  0.023  0.004  0.028
tot    0.224  0.272  0.049  0.546
 
band    37 # energy    5.36877124 # occ.  0.00000000
 
ion      s      p      d    tot
    1  0.000  0.003  0.000  0.003
    2  0.000  0.003  0.000  0.003
    3  0.000  0.003  0.000  0.003
    4  0.000  0.003  0.000  0.003
    5  0.005  0.060  0.017  0.082
    6  0.005  0.060  0.017  0.082
    7  0.005  0.060  0.017  0.082
    8  0.005  0.060  0.017  0.082
    9  0.000  0.001  0.007  0.008
   10  0.000  0.001  0.007  0.008
   11  0.000  0.001  0.007  0.008
   12  0.000  0.001  0.007  0.008
   13  0.000  0.018  0.005  0.024
   14  0.000  0.018  0.005  0.024
   15  0.000  0.018  0.005  0.024
   16  0.000  0.018  0.005  0.024
tot    0.020  0.327  0.118  0.466
 
band    38 # energy    5.48799783 # occ.  0.00000000
 
ion      s      p      d    tot
    1  0.000  0.004  0.000  0.004
    2  0.000  0.004  0.000  0.004
    3  0.000  0.004  0.000  0.004
    4  0.000  0.004  0.000  0.004
    5  0.000  0.054  0.016  0.070
    6  0.000  0.054  0.016  0.070
    7  0.000  0.054  0.016  0.070
    8  0.000  0.054  0.016  0.070
    9  0.000  0.003  0.006  0.008
   10  0.000  0.003  0.006  0.008
   11  0.000  0.003  0.006  0.008
   12  0.000  0.003  0.006  0.008
   13  0.000  0.011  0.007  0.018
   14  0.000  0.011  0.007  0.018
   15  0.000  0.011  0.007  0.018
   16  0.000  0.011  0.007  0.018
tot    0.002  0.288  0.114  0.404
 
band    39 # energy    5.55689100 # occ.  0.00000000
 
ion      s      p      d    tot
    1  0.001  0.003  0.000  0.004
    2  0.001  0.003  0.000  0.004
    3  0.001  0.003  0.000  0.004
    4  0.001  0.003  0.000  0.004
    5  0.001  0.045  0.018  0.064
    6  0.001  0.045  0.018  0.064
    7  0.001  0.045  0.018  0.064
    8  0.001  0.045  0.018  0.064
    9  0.000  0.013  0.005  0.018
   10  0.000  0.013  0.005  0.018
   11  0.000  0.013  0.005  0.018
   12  0.000  0.013  0.005  0.018
   13  0.005  0.019  0.004  0.028
   14  0.005  0.019  0.004  0.028
   15  0.005  0.019  0.004  0.028
   16  0.005  0.019  0.004  0.028
tot    0.030  0.318  0.109  0.456
 
band    40 # energy    6.22590822 # occ.  0.00000000
 
ion      s      p      d    tot
    1  0.001  0.001  0.000  0.003
    2  0.001  0.001  0.000  0.003
    3  0.001  0.001  0.000  0.003
    4  0.001  0.001  0.000  0.003
    5  0.000  0.106  0.009  0.115
    6  0.000  0.106  0.009  0.115
    7  0.000  0.106  0.009  0.115
    8  0.000  0.106  0.009  0.115
    9  0.010  0.001  0.006  0.016
   10  0.010  0.001  0.006  0.016
   11  0.010  0.001  0.006  0.016
   12  0.010  0.001  0.006  0.016
   13  0.003  0.013  0.005  0.020
   14  0.003  0.013  0.005  0.020
   15  0.003  0.013  0.005  0.020
   16  0.003  0.013  0.005  0.020
tot    0.056  0.482  0.075  0.613
 
band    41 # energy    6.44591244 # occ.  0.00000000
 
ion      s      p      d    tot
    1  0.004  0.006  0.000  0.009
    2  0.004  0.006  0.000  0.009
    3  0.004  0.006  0.000  0.009
    4  0.004  0.006  0.000  0.009
    5  0.015  0.049  0.009  0.072
    6  0.015  0.049  0.009  0.072
    7  0.015  0.049  0.009  0.072
    8  0.015  0.049  0.009  0.072
    9  0.001  0.029  0.006  0.036
   10  0.001  0.029  0.006  0.036
   11  0.001  0.029  0.006  0.036
   12  0.001  0.029  0.006  0.036
   13  0.004  0.018  0.002  0.025
   14  0.004  0.018  0.002  0.025
   15  0.004  0.018  0.002  0.025
   16  0.004  0.018  0.002  0.025
tot    0.095  0.405  0.069  0.569
 
band    42 # energy    6.66083019 # occ.  0.00000000
 
ion      s      p      d    tot
    1  0.000  0.006  0.000  0.006
    2  0.000  0.004  0.000  0.005
    3  0.000  0.004  0.000  0.005
    4  0.000  0.006  0.000  0.006
    5  0.000  0.054  0.018  0.073
    6  0.000  0.054  0.018  0.073
    7  0.001  0.071  0.018  0.090
    8  0.001  0.071  0.018  0.090
    9  0.005  0.020  0.001  0.026
   10  0.004  0.023  0.001  0.028
   11  0.005  0.020  0.001  0.026
   12  0.004  0.023  0.001  0.028
   13  0.006  0.007  0.008  0.022
   14  0.006  0.007  0.008  0.022
   15  0.006  0.009  0.007  0.021
   16  0.006  0.009  0.007  0.021
tot    0.045  0.390  0.107  0.542
 

 k-point     2 :    0.33333333 0.00000000 0.00000000     weight = 0.07407407

band     1 # energy  -11.02949920 # occ.  2.00000000
 
ion      s      p      d    tot
    1  0.001  0.000  0.000  0.001
    2  0.001  0.000  0.000  0.001
    3  0.001  0.000  0.000  0.001
    4  0.001  0.000  0.000  0.001
    5  0.027  0.001  0.000  0.029
    6  0.027  0.001  0.000  0.029
    7  0.027  0.001  0.000  0.029
    8  0.027  0.001  0.000  0.029
    9  0.078  0.000  0.000  0.078
   10  0.078  0.000  0.000  0.078
   11  0.078  0.000  0.000  0.078
   12  0.078  0.000  0.000  0.078
   13  0.080  0.000  0.000  0.081
   14  0.080  0.000  0.000  0.081
   15  0.080  0.000  0.000  0.081
   16  0.080  0.000  0.000  0.081
tot    0.746  0.008  0.001  0.756
 
band     2 # energy  -10.74022745 # occ.  2.00000000
 
ion      s      p      d    tot
    1  0.000  0.001  0.000  0.001
    2  0.000  0.001  0.000  0.001
    3  0.000  0.001  0.000  0.001
    4  0.000  0.001  0.000  0.001
    5  0.021  0.004  0.001  0.026
    6  0.021  0.004  0.001  0.026
    7  0.021  0.004  0.001  0.026
    8  0.021  0.004  0.001  0.026
    9  0.047  0.000  0.000  0.048
   10  0.047  0.000  0.000  0.048
   11  0.047  0.000  0.000  0.048
   12  0.047  0.000  0.000  0.048
   13  0.118  0.000  0.000  0.119
   14  0.118  0.000  0.000  0.119
   15  0.118  0.000  0.000  0.119
   16  0.118  0.000  0.000  0.119
tot    0.748  0.020  0.004  0.771
 
band     3 # energy  -10.57330428 # occ.  2.00000000
 
ion      s      p      d    tot
    1  0.000  0.001  0.000  0.001
    2  0.000  0.001  0.000  0.001
    3  0.000  0.001  0.000  0.001
    4  0.000  0.001  0.000  0.001
    5  0.014  0.006  0.001  0.022
    6  0.014  0.006  0.001  0.022
    7  0.014  0.006  0.001  0.022
    8  0.014  0.006  0.001  0.022
    9  0.171  0.000  0.000  0.172