<?xml version="1.0" encoding="ISO-8859-1"?>
<modeling>
 <generator>
  <i name="program" type="string">vasp </i>
  <i name="version" type="string">5.4.4.18Apr17-6-g9f103f2a35  </i>
  <i name="subversion" type="string">(build Oct 27 2022 13:04:57) complex            parallel </i>
  <i name="platform" type="string">LinuxIFC </i>
  <i name="date" type="string">2024 07 04 </i>
  <i name="time" type="string">04:02:01 </i>
 </generator>
 <incar>
  <i type="string" name="SYSTEM"> CIS</i>
  <i type="int" name="ISTART">     0</i>
  <i type="string" name="PREC">medium</i>
  <i type="int" name="ICHARG">     2</i>
  <i type="int" name="IBRION">     2</i>
  <i name="EDIFF">      0.00010000</i>
  <i name="EDIFFG">     -0.05000000</i>
  <i type="int" name="NSW">    99</i>
  <i type="int" name="ISIF">     3</i>
  <i name="ENCUT">    300.00000000</i>
  <i name="POTIM">      0.10000000</i>
  <i type="string" name="LREAL"> Auto</i>
  <i type="int" name="ISMEAR">     0</i>
  <i name="SIGMA">      0.05000000</i>
  <i type="int" name="LMAXMIX">     4</i>
  <i type="logical" name="LWAVE"> F  </i>
  <i type="logical" name="LCHARG"> F  </i>
  <i type="int" name="LORBIT">    10</i>
  <i type="logical" name="LASPH"> T  </i>
  <v type="int" name="KPOINT_BSE">    -1     0     0     0</v>
  <i type="logical" name="LASPH"> T  </i>
 </incar>
 <structure name="primitive_cell" >
  <crystal>
   <varray name="basis" >
    <v>       6.95463111       0.00000000       0.00000000 </v>
    <v>       0.00000000       7.27059792       0.00000000 </v>
    <v>       0.00000000       0.00000000       8.78300223 </v>
   </varray>
   <i name="volume">    444.10659247 </i>
   <varray name="rec_basis" >
    <v>       0.14378908       0.00000000       0.00000000 </v>
    <v>       0.00000000       0.13754027       0.00000000 </v>
    <v>       0.00000000       0.00000000       0.11385628 </v>
   </varray>
  </crystal>
  <varray name="positions" >
   <v>      -0.38114025      -0.41421368       0.12260302 </v>
   <v>       0.49966077       0.42599620       0.37043818 </v>
   <v>       0.49966077      -0.07400380       0.12956182 </v>
   <v>      -0.00474964      -0.41462603       0.12373564 </v>
   <v>       0.49525036       0.41462603      -0.12373564 </v>
   <v>      -0.37756187       0.07359716      -0.12641813 </v>
   <v>       0.12243813      -0.07359716       0.12641813 </v>
   <v>       0.12243813       0.42640284       0.37358187 </v>
   <v>      -0.38114025       0.08578632       0.37739698 </v>
   <v>       0.11885975       0.41421368      -0.12260302 </v>
   <v>      -0.37756187      -0.42640284      -0.37358187 </v>
   <v>      -0.00033923       0.07400380      -0.12956182 </v>
   <v>      -0.00474964       0.08537397       0.37626436 </v>
   <v>       0.49525036      -0.08537397      -0.37626436 </v>
   <v>      -0.00033923      -0.42599620      -0.37043818 </v>
   <v>       0.11885975      -0.08578632      -0.37739698 </v>
  </varray>
 </structure>
 <varray name="primitive_index" >
  <v type="int" >        1 </v>
  <v type="int" >       12 </v>
  <v type="int" >       11 </v>
  <v type="int" >       15 </v>
  <v type="int" >       16 </v>
  <v type="int" >        8 </v>
  <v type="int" >        7 </v>
  <v type="int" >        6 </v>
  <v type="int" >        3 </v>
  <v type="int" >        4 </v>
  <v type="int" >        5 </v>
  <v type="int" >        9 </v>
  <v type="int" >       14 </v>
  <v type="int" >       13 </v>
  <v type="int" >       10 </v>
  <v type="int" >        2 </v>
 </varray>
 <kpoints>
  <generation param="Monkhorst-Pack">
   <v type="int" name="divisions">       3        3        3 </v>
   <v name="usershift">      0.00000000       0.00000000       0.00000000 </v>
   <v name="genvec1">      0.33333333       0.00000000       0.00000000 </v>
   <v name="genvec2">      0.00000000       0.33333333       0.00000000 </v>
   <v name="genvec3">      0.00000000       0.00000000       0.33333333 </v>
   <v name="shift">      0.00000000       0.00000000       0.00000000 </v>
  </generation>
  <varray name="kpointlist" >
   <v>       0.00000000       0.00000000       0.00000000 </v>
   <v>       0.33333333       0.00000000       0.00000000 </v>
   <v>       0.00000000       0.33333333       0.00000000 </v>
   <v>       0.33333333       0.33333333       0.00000000 </v>
   <v>       0.00000000       0.00000000       0.33333333 </v>
   <v>       0.33333333       0.00000000       0.33333333 </v>
   <v>       0.00000000       0.33333333       0.33333333 </v>
   <v>       0.33333333       0.33333333       0.33333333 </v>
  </varray>
  <varray name="weights" >
   <v>       0.03703704 </v>
   <v>       0.07407407 </v>
   <v>       0.07407407 </v>
   <v>       0.14814815 </v>
   <v>       0.07407407 </v>
   <v>       0.14814815 </v>
   <v>       0.14814815 </v>
   <v>       0.29629630 </v>
  </varray>
 </kpoints>
 <parameters>
  <separator name="general" >
   <i type="string" name="SYSTEM">CIS</i>
   <i type="logical" name="LCOMPAT"> F  </i>
  </separator>
  <separator name="electronic" >
   <i type="string" name="PREC">medium</i>
   <i name="ENMAX">    300.00000000</i>
   <i name="ENAUG">    446.84200000</i>
   <i name="EDIFF">      0.00010000</i>
   <i type="int" name="IALGO">    38</i>
   <i type="int" name="IWAVPR">    11</i>
   <i type="int" name="NBANDS">    42</i>
   <i name="NELECT">     64.00000000</i>
   <i type="int" name="TURBO">     0</i>
   <i type="int" name="IRESTART">     0</i>
   <i type="int" name="NREBOOT">     0</i>
   <i type="int" name="NMIN">     0</i>
   <i name="EREF">      0.00000000</i>
   <separator name="electronic smearing" >
    <i type="int" name="ISMEAR">     0</i>
    <i name="SIGMA">      0.05000000</i>
    <i name="KSPACING">      0.50000000</i>
    <i type="logical" name="KGAMMA"> T  </i>
   </separator>
   <separator name="electronic projectors" >
    <i type="logical" name="LREAL"> T  </i>
    <v name="ROPT">     -0.00200000     -0.00200000     -0.00200000</v>
    <i type="int" name="LMAXPAW">  -100</i>
    <i type="int" name="LMAXMIX">     4</i>
    <i type="logical" name="NLSPLINE"> F  </i>
   </separator>
   <separator name="electronic startup" >
    <i type="int" name="ISTART">     0</i>
    <i type="int" name="ICHARG">     2</i>
    <i type="int" name="INIWAV">     1</i>
   </separator>
   <separator name="electronic spin" >
    <i type="int" name="ISPIN">     1</i>
    <i type="logical" name="LNONCOLLINEAR"> F  </i>
    <v name="MAGMOM">      1.00000000      1.00000000      1.00000000      1.00000000      1.00000000      1.00000000      1.00000000      1.00000000      1.00000000      1.00000000      1.00000000      1.00000000      1.00000000      1.00000000      1.00000000      1.00000000</v>
    <i name="NUPDOWN">     -1.00000000</i>
    <i type="logical" name="LSORBIT"> F  </i>
    <v name="SAXIS">      0.00000000      0.00000000      1.00000000</v>
    <i type="logical" name="LSPIRAL"> F  </i>
    <v name="QSPIRAL">      0.00000000      0.00000000      0.00000000</v>
    <i type="logical" name="LZEROZ"> F  </i>
   </separator>
   <separator name="electronic exchange-correlation" >
    <i type="logical" name="LASPH"> T  </i>
    <i type="logical" name="LMETAGGA"> F  </i>
   </separator>
   <separator name="electronic convergence" >
    <i type="int" name="NELM">    60</i>
    <i type="int" name="NELMDL">    -5</i>
    <i type="int" name="NELMIN">     2</i>
    <i name="ENINI">    300.00000000</i>
    <separator name="electronic convergence detail" >
     <i type="logical" name="LDIAG"> T  </i>
     <i type="logical" name="LSUBROT"> F  </i>
     <i name="WEIMIN">      0.00100000</i>
     <i name="EBREAK">      0.00000060</i>
     <i name="DEPER">      0.30000000</i>
     <i type="int" name="NRMM">     4</i>
     <i name="TIME">      0.40000000</i>
    </separator>
   </separator>
   <separator name="electronic mixer" >
    <i name="AMIX">      0.40000000</i>
    <i name="BMIX">      1.00000000</i>
    <i name="AMIN">      0.10000000</i>
    <i name="AMIX_MAG">      1.60000000</i>
    <i name="BMIX_MAG">      1.00000000</i>
    <separator name="electronic mixer details" >
     <i type="int" name="IMIX">     4</i>
     <i type="logical" name="MIXFIRST"> F  </i>
     <i type="int" name="MAXMIX">   -45</i>
     <i name="WC">    100.00000000</i>
     <i type="int" name="INIMIX">     1</i>
     <i type="int" name="MIXPRE">     1</i>
     <i type="int" name="MREMOVE">     5</i>
    </separator>
   </separator>
   <separator name="electronic dipolcorrection" >
    <i type="logical" name="LDIPOL"> F  </i>
    <i type="logical" name="LMONO"> F  </i>
    <i type="int" name="IDIPOL">     0</i>
    <i name="EPSILON">      1.00000000</i>
    <v name="DIPOL">   -100.00000000   -100.00000000   -100.00000000</v>
    <i name="EFIELD">      0.00000000</i>
   </separator>
  </separator>
  <separator name="grids" >
   <i type="int" name="NGX">    30</i>
   <i type="int" name="NGY">    32</i>
   <i type="int" name="NGZ">    40</i>
   <i type="int" name="NGXF">    48</i>
   <i type="int" name="NGYF">    50</i>
   <i type="int" name="NGZF">    60</i>
   <i type="logical" name="ADDGRID"> F  </i>
  </separator>
  <separator name="ionic" >
   <i type="int" name="NSW">    99</i>
   <i type="int" name="IBRION">     2</i>
   <i type="int" name="MDALGO">     0</i>
   <i type="int" name="ISIF">     3</i>
   <i name="PSTRESS">      0.00000000</i>
   <i name="EDIFFG">     -0.05000000</i>
   <i type="int" name="NFREE">     1</i>
   <i name="POTIM">      0.10000000</i>
   <i name="SMASS">     -3.00000000</i>
   <i name="SCALEE">      1.00000000</i>
  </separator>
  <separator name="ionic md" >
   <i name="TEBEG">      0.00010000</i>
   <i name="TEEND">      0.00010000</i>
   <i type="int" name="NBLOCK">     1</i>
   <i type="int" name="KBLOCK">    99</i>
   <i type="int" name="NPACO">   256</i>
   <i name="APACO">     16.00000000</i>
  </separator>
  <separator name="symmetry" >
   <i type="int" name="ISYM">     2</i>
   <i name="SYMPREC">      0.00001000</i>
  </separator>
  <separator name="dos" >
   <i type="int" name="LORBIT">    10</i>
   <v name="RWIGS">     -1.00000000     -1.00000000     -1.00000000</v>
   <i type="int" name="NEDOS">   301</i>
   <i name="EMIN">     10.00000000</i>
   <i name="EMAX">    -10.00000000</i>
   <i name="EFERMI">      0.00000000</i>
  </separator>
  <separator name="writing" >
   <i type="int" name="NWRITE">     2</i>
   <i type="logical" name="LWAVE"> F  </i>
   <i type="logical" name="LDOWNSAMPLE"> F  </i>
   <i type="logical" name="LCHARG"> F  </i>
   <i type="logical" name="LPARD"> F  </i>
   <i type="logical" name="LVTOT"> F  </i>
   <i type="logical" name="LVHAR"> F  </i>
   <i type="logical" name="LELF"> F  </i>
   <i type="logical" name="LOPTICS"> F  </i>
   <v name="STM">      0.00000000      0.00000000      0.00000000      0.00000000      0.00000000      0.00000000      0.00000000</v>
  </separator>
  <separator name="performance" >
   <i type="int" name="NPAR">    14</i>
   <i type="int" name="NSIM">     4</i>
   <i type="int" name="NBLK">    -1</i>
   <i type="logical" name="LPLANE"> T  </i>
   <i type="logical" name="LSCALAPACK"> T  </i>
   <i type="logical" name="LSCAAWARE"> F  </i>
   <i type="logical" name="LSCALU"> F  </i>
   <i type="logical" name="LASYNC"> F  </i>
   <i type="logical" name="LORBITALREAL"> F  </i>
  </separator>
  <separator name="miscellaneous" >
   <i type="int" name="IDIOT">     3</i>
   <i type="int" name="ISPECIAL">     0</i>
   <i type="logical" name="LMUSIC"> F  </i>
   <v name="POMASS">      7.01000000    114.82000000     78.96000000</v>
   <v name="DARWINR">      0.00000000      0.00000000      0.00000000</v>
   <v name="DARWINV">      1.00000000      1.00000000      1.00000000</v>
   <i type="logical" name="LCORR"> T  </i>
  </separator>
  <i type="logical" name="GGA_COMPAT"> T  </i>
  <i type="logical" name="LBERRY"> F  </i>
  <i type="int" name="ICORELEVEL">     0</i>
  <i type="logical" name="LDAU"> F  </i>
  <i type="int" name="I_CONSTRAINED_M">     0</i>
  <separator name="electronic exchange-correlation" >
   <i type="string" name="GGA">--</i>
   <i type="int" name="VOSKOWN">     0</i>
   <i type="logical" name="LHFCALC"> F  </i>
   <i type="string" name="PRECFOCK"></i>
   <i type="logical" name="LSYMGRAD"> F  </i>
   <i type="logical" name="LHFONE"> F  </i>
   <i type="logical" name="LRHFCALC"> F  </i>
   <i type="logical" name="LTHOMAS"> F  </i>
   <i type="logical" name="LMODELHF"> F  </i>
   <i name="ENCUT4O">     -1.00000000</i>
   <i type="int" name="EXXOEP">     0</i>
   <i type="int" name="FOURORBIT">     0</i>
   <i name="AEXX">      0.00000000</i>
   <i name="HFALPHA">      0.00000000</i>
   <i name="MCALPHA">      0.00000000</i>
   <i name="ALDAX">      1.00000000</i>
   <i name="AGGAX">      1.00000000</i>
   <i name="ALDAC">      1.00000000</i>
   <i name="AGGAC">      1.00000000</i>
   <i type="int" name="NKREDX">     1</i>
   <i type="int" name="NKREDY">     1</i>
   <i type="int" name="NKREDZ">     1</i>
   <i type="logical" name="SHIFTRED"> F  </i>
   <i type="logical" name="ODDONLY"> F  </i>
   <i type="logical" name="EVENONLY"> F  </i>
   <i type="int" name="LMAXFOCK">     0</i>
   <i type="int" name="NMAXFOCKAE">     0</i>
   <i type="logical" name="LFOCKAEDFT"> F  </i>
   <i name="HFSCREEN">      0.00000000</i>
   <i name="HFSCREENC">      0.00000000</i>
   <i type="int" name="NBANDSGWLOW">     0</i>
  </separator>
  <separator name="vdW DFT" >
   <i type="logical" name="LUSE_VDW"> F  </i>
   <i name="Zab_VDW">     -0.84910000</i>
   <i name="PARAM1">      0.12340000</i>
   <i name="PARAM2">      1.00000000</i>
   <i name="PARAM3">      0.00000000</i>
  </separator>
  <separator name="model GW" >
   <i type="int" name="MODEL_GW">     0</i>
   <i name="MODEL_EPS0">     16.65399722</i>
   <i name="MODEL_ALPHA">      1.00000000</i>
  </separator>
  <separator name="linear response parameters" >
   <i type="logical" name="LEPSILON"> F  </i>
   <i type="logical" name="LRPA"> F  </i>
   <i type="logical" name="LNABLA"> F  </i>
   <i type="logical" name="LVEL"> F  </i>
   <i type="int" name="KINTER">     0</i>
   <i name="CSHIFT">      0.10000000</i>
   <i name="OMEGAMAX">     -1.00000000</i>
   <i name="DEG_THRESHOLD">      0.00200000</i>
   <i name="RTIME">     -0.10000000</i>
   <i name="WPLASMAI">      0.00000000</i>
   <v name="DFIELD">      0.00000000      0.00000000      0.00000000</v>
   <v name="WPLASMA">      0.00000000      0.00000000      0.00000000      0.00000000      0.00000000      0.00000000      0.00000000      0.00000000      0.00000000</v>
  </separator>
  <separator name="orbital magnetization" >
   <i type="logical" name="NUCIND"> F  </i>
   <v name="MAGPOS">      0.00000000      0.00000000      0.00000000</v>
   <i type="logical" name="LNICSALL"> T  </i>
   <i type="logical" name="ORBITALMAG"> F  </i>
   <i type="logical" name="LMAGBLOCH"> F  </i>
   <i type="logical" name="LCHIMAG"> F  </i>
   <i type="logical" name="LGAUGE"> T  </i>
   <i type="int" name="MAGATOM">     0</i>
   <v name="MAGDIPOL">      0.00000000      0.00000000      0.00000000</v>
   <v name="AVECCONST">      0.00000000      0.00000000      0.00000000</v>
  </separator>
  <separator name="response functions" >
   <i type="logical" name="LADDER"> F  </i>
   <i type="logical" name="LRPAFORCE"> F  </i>
   <i type="logical" name="LFXC"> F  </i>
   <i type="logical" name="LHARTREE"> T  </i>
   <i type="int" name="IBSE">     0</i>
   <v type="int" name="KPOINT">    -1     0     0     0</v>
   <i type="logical" name="LTCTE"> F  </i>
   <i type="logical" name="LTETE"> F  </i>
   <i type="logical" name="LTRIPLET"> F  </i>
   <i type="logical" name="LFXCEPS"> F  </i>
   <i type="logical" name="LFXHEG"> F  </i>
   <i type="int" name="NATURALO">     2</i>
   <i type="logical" name="L2ORDER"> F  </i>
   <i type="logical" name="LMP2LT"> F  </i>
   <i type="logical" name="LUSEW"> F  </i>
   <i name="ENCUTGW">     -2.00000000</i>
   <i name="ENCUTGWSOFT">     -2.00000000</i>
   <i name="ENCUTLF">     -1.00000000</i>
   <i type="int" name="LMAXMP2">    -1</i>
   <i name="SCISSOR">      0.00000000</i>
   <i type="int" name="NOMEGA">     0</i>
   <i type="int" name="NOMEGAR">     0</i>
   <i type="int" name="NBANDSGW">    -1</i>
   <i type="int" name="NBANDSO">    -1</i>
   <i type="int" name="NBANDSV">    -1</i>
   <i type="int" name="NELM">     1</i>
   <i type="int" name="NELMHF">     1</i>
   <i type="int" name="DIM">     3</i>
   <i type="int" name="ANTIRES">     0</i>
   <i name="OMEGAMAX">    -30.00000000</i>
   <i name="OMEGAMIN">    -30.00000000</i>
   <i name="OMEGATL">   -200.00000000</i>
   <i type="int" name="OMEGAGRID">   140</i>
   <i name="CSHIFT">     -0.10000000</i>
   <i type="logical" name="SELFENERGY"> F  </i>
   <i type="logical" name="LSPECTRAL"> F  </i>
   <i type="logical" name="LSPECTRALGW"> F  </i>
   <i type="logical" name="LSINGLES"> F  </i>
   <i type="logical" name="LFERMIGW"> F  </i>
   <i type="logical" name="ODDONLYGW"> F  </i>
   <i type="logical" name="EVENONLYGW"> F  </i>
   <i type="int" name="NKREDLFX">     1</i>
   <i type="int" name="NKREDLFY">     1</i>
   <i type="int" name="NKREDLFZ">     1</i>
   <i type="int" name="MAXMEM">  2800</i>
   <i type="int" name="TELESCOPE">     0</i>
   <i type="int" name="TAUPAR">     1</i>
   <i type="int" name="OMEGAPAR">    -1</i>
   <i name="LAMBDA">      1.00000000</i>
  </separator>
  <separator name="External order field" >
   <i name="OFIELD_KAPPA">      0.00000000</i>
   <v name="OFIELD_K">      0.00000000      0.00000000      0.00000000</v>
   <i name="OFIELD_Q6_NEAR">      0.00000000</i>
   <i name="OFIELD_Q6_FAR">      0.00000000</i>
   <i name="OFIELD_A">      0.00000000</i>
  </separator>
 </parameters>
 <atominfo>
  <atoms>      16 </atoms>
  <types>       3 </types>
  <array name="atoms" >
   <dimension dim="1">ion</dimension>
   <field type="string">element</field>
   <field type="int">atomtype</field>
   <set>
    <rc><c>Li</c><c>   1</c></rc>
    <rc><c>Li</c><c>   1</c></rc>
    <rc><c>Li</c><c>   1</c></rc>
    <rc><c>Li</c><c>   1</c></rc>
    <rc><c>In</c><c>   2</c></rc>
    <rc><c>In</c><c>   2</c></rc>
    <rc><c>In</c><c>   2</c></rc>
    <rc><c>In</c><c>   2</c></rc>
    <rc><c>Se</c><c>   3</c></rc>
    <rc><c>Se</c><c>   3</c></rc>
    <rc><c>Se</c><c>   3</c></rc>
    <rc><c>Se</c><c>   3</c></rc>
    <rc><c>Se</c><c>   3</c></rc>
    <rc><c>Se</c><c>   3</c></rc>
    <rc><c>Se</c><c>   3</c></rc>
    <rc><c>Se</c><c>   3</c></rc>
   </set>
  </array>
  <array name="atomtypes" >
   <dimension dim="1">type</dimension>
   <field type="int">atomspertype</field>
   <field type="string">element</field>
   <field>mass</field>
   <field>valence</field>
   <field type="string">pseudopotential</field>
   <set>
    <rc><c>   4</c><c>Li</c><c>      7.01000000</c><c>      1.00000000</c><c>  PAW_PBE Li 17Jan2003                  </c></rc>
    <rc><c>   4</c><c>In</c><c>    114.82000000</c><c>      3.00000000</c><c>  PAW_PBE In 08Apr2002                  </c></rc>
    <rc><c>   8</c><c>Se</c><c>     78.96000000</c><c>      6.00000000</c><c>  PAW_PBE Se 06Sep2000                  </c></rc>
   </set>
  </array>
 </atominfo>
 <structure name="initialpos" >
  <crystal>
   <varray name="basis" >
    <v>       6.95463111       0.00000000       0.00000000 </v>
    <v>       0.00000000       7.27059792       0.00000000 </v>
    <v>       0.00000000       0.00000000       8.78300223 </v>
   </varray>
   <i name="volume">    444.10659247 </i>
   <varray name="rec_basis" >
    <v>       0.14378908       0.00000000       0.00000000 </v>
    <v>       0.00000000       0.13754027       0.00000000 </v>
    <v>       0.00000000       0.00000000       0.11385628 </v>
   </varray>
  </crystal>
  <varray name="positions" >
   <v>       0.61885975       0.58578632       0.12260302 </v>
   <v>       0.11885975       0.91421368       0.62260302 </v>
   <v>       0.61885975       0.08578632       0.37739698 </v>
   <v>       0.11885975       0.41421368       0.87739698 </v>
   <v>       0.62243813       0.57359716       0.62641813 </v>
   <v>       0.12243813       0.42640284       0.37358187 </v>
   <v>       0.12243813       0.92640284       0.12641813 </v>
   <v>       0.62243813       0.07359716       0.87358187 </v>
   <v>       0.99966077       0.07400380       0.87043818 </v>
   <v>       0.99966077       0.57400380       0.62956182 </v>
   <v>       0.49966077       0.92599620       0.12956182 </v>
   <v>       0.49966077       0.42599620       0.37043818 </v>
   <v>       0.49525036       0.91462603       0.62373564 </v>
   <v>       0.99525036       0.08537397       0.37626436 </v>
   <v>       0.99525036       0.58537397       0.12373564 </v>
   <v>       0.49525036       0.41462603       0.87626436 </v>
  </varray>
 </structure>
 <calculation>
  <scstep>
   <time name="dav">    0.27    0.27</time>
   <time name="total">    0.44    0.45</time>
   <energy>
    <i name="alphaZ">     67.90880072 </i>
    <i name="ewald">  -1949.34869083 </i>
    <i name="hartreedc">   -340.55033549 </i>
    <i name="XCdc">   -246.93397029 </i>
    <i name="pawpsdc">   2089.94512839 </i>
    <i name="pawaedc">  -1720.00351858 </i>
    <i name="eentropy">     -0.01139258 </i>
    <i name="bandstr">     50.52043787 </i>
    <i name="atom">   2293.35992167 </i>
    <i name="e_fr_energy">    244.88638089 </i>
    <i name="e_wo_entrp">    244.89777347 </i>
    <i name="e_0_energy">    244.89207718 </i>
   </energy>
  </scstep>
  <scstep>
   <time name="dav">    0.30    0.30</time>
   <time name="total">    0.30    0.30</time>
   <energy>
    <i name="e_fr_energy">    -40.04930229 </i>
    <i name="e_wo_entrp">    -40.04930229 </i>
    <i name="e_0_energy">    -40.04930229 </i>
   </energy>
  </scstep>
  <scstep>
   <time name="dav">    0.37    0.38</time>
   <time name="total">    0.37    0.38</time>
   <energy>
    <i name="e_fr_energy">    -62.51811761 </i>
    <i name="e_wo_entrp">    -62.51811761 </i>
    <i name="e_0_energy">    -62.51811761 </i>
   </energy>
  </scstep>
  <scstep>
   <time name="dav">    0.41    0.41</time>
   <time name="total">    0.41    0.41</time>
   <energy>
    <i name="e_fr_energy">    -62.78606933 </i>
    <i name="e_wo_entrp">    -62.78606933 </i>
    <i name="e_0_energy">    -62.78606933 </i>
   </energy>
  </scstep>
  <scstep>
   <time name="dav">    0.37    0.38</time>
   <time name="total">    0.39    0.39</time>
   <energy>
    <i name="e_fr_energy">    -62.79023665 </i>
    <i name="e_wo_entrp">    -62.79023665 </i>
    <i name="e_0_energy">    -62.79023665 </i>
   </energy>
  </scstep>
  <scstep>
   <time name="dav">    0.34    0.35</time>
   <time name="total">    0.53    0.53</time>
   <energy>
    <i name="e_fr_energy">    -60.21766271 </i>
    <i name="e_wo_entrp">    -60.21766271 </i>
    <i name="e_0_energy">    -60.21766271 </i>
   </energy>
  </scstep>
  <scstep>
   <time name="dav">    0.37    0.37</time>
   <time name="total">    0.56    0.56</time>
   <energy>
    <i name="e_fr_energy">    -59.90515059 </i>
    <i name="e_wo_entrp">    -59.90515059 </i>
    <i name="e_0_energy">    -59.90515059 </i>
   </energy>
  </scstep>
  <scstep>
   <time name="dav">    0.32    0.32</time>
   <time name="total">    0.50    0.50</time>
   <energy>
    <i name="e_fr_energy">    -59.89484153 </i>
    <i name="e_wo_entrp">    -59.89484153 </i>
    <i name="e_0_energy">    -59.89484153 </i>
   </energy>
  </scstep>
  <scstep>
   <time name="dav">    0.25    0.25</time>
   <time name="total">    0.44    0.44</time>
   <energy>
    <i name="e_fr_energy">    -59.89897931 </i>
    <i name="e_wo_entrp">    -59.89897931 </i>
    <i name="e_0_energy">    -59.89897931 </i>
   </energy>
  </scstep>
  <scstep>
   <time name="dav">    0.32    0.32</time>
   <time name="total">    0.51    0.51</time>
   <energy>
    <i name="e_fr_energy">    -59.90034750 </i>
    <i name="e_wo_entrp">    -59.90034750 </i>
    <i name="e_0_energy">    -59.90034750 </i>
   </energy>
  </scstep>
  <scstep>
   <time name="dav">    0.31    0.31</time>
   <time name="total">    0.50    0.50</time>
   <energy>
    <i name="e_fr_energy">    -59.90107426 </i>
    <i name="e_wo_entrp">    -59.90107426 </i>
    <i name="e_0_energy">    -59.90107426 </i>
   </energy>
  </scstep>
  <scstep>
   <time name="dav">    0.37    0.37</time>
   <time name="total">    0.55    0.55</time>
   <energy>
    <i name="alphaZ">     67.90880072 </i>
    <i name="ewald">  -1949.34869083 </i>
    <i name="hartreedc">   -378.87926362 </i>
    <i name="XCdc">   -241.29905242 </i>
    <i name="pawpsdc">   3857.12236382 </i>
    <i name="pawaedc">  -3489.73303100 </i>
    <i name="eentropy">     -0.00000000 </i>
    <i name="bandstr">   -219.03218230 </i>
    <i name="atom">   2293.35992167 </i>
    <i name="e_fr_energy">    -59.90113397 </i>
    <i name="e_wo_entrp">    -59.90113397 </i>
    <i name="e_0_energy">    -59.90113397 </i>
   </energy>
  </scstep>
  <structure>
   <crystal>
    <varray name="basis" >
     <v>       6.95463111       0.00000000       0.00000000 </v>
     <v>       0.00000000       7.27059792       0.00000000 </v>
     <v>       0.00000000       0.00000000       8.78300223 </v>
    </varray>
    <i name="volume">    444.10659247 </i>
    <varray name="rec_basis" >
     <v>       0.14378908       0.00000000       0.00000000 </v>
     <v>       0.00000000       0.13754027       0.00000000 </v>
     <v>       0.00000000       0.00000000       0.11385628 </v>
    </varray>
   </crystal>
   <varray name="positions" >
    <v>       0.61885975       0.58578632       0.12260302 </v>
    <v>       0.11885975       0.91421368       0.62260302 </v>
    <v>       0.61885975       0.08578632       0.37739698 </v>
    <v>       0.11885975       0.41421368       0.87739698 </v>
    <v>       0.62243813       0.57359716       0.62641813 </v>
    <v>       0.12243813       0.42640284       0.37358187 </v>
    <v>       0.12243813       0.92640284       0.12641813 </v>
    <v>       0.62243813       0.07359716       0.87358187 </v>
    <v>       0.99966077       0.07400380       0.87043818 </v>
    <v>       0.99966077       0.57400380       0.62956182 </v>
    <v>       0.49966077       0.92599620       0.12956182 </v>
    <v>       0.49966077       0.42599620       0.37043818 </v>
    <v>       0.49525036       0.91462603       0.62373564 </v>
    <v>       0.99525036       0.08537397       0.37626436 </v>
    <v>       0.99525036       0.58537397       0.12373564 </v>
    <v>       0.49525036       0.41462603       0.87626436 </v>
   </varray>
  </structure>
  <varray name="forces" >
   <v>      -0.00030945       0.04505476      -0.00408722 </v>
   <v>      -0.00030945      -0.04505476      -0.00408722 </v>
   <v>      -0.00030945       0.04505476       0.00408722 </v>
   <v>      -0.00030945      -0.04505476       0.00408722 </v>
   <v>      -0.09751888      -0.00267493      -0.02620787 </v>
   <v>      -0.09751888       0.00267493       0.02620787 </v>
   <v>      -0.09751888       0.00267493      -0.02620787 </v>
   <v>      -0.09751888      -0.00267493       0.02620787 </v>
   <v>       0.17398595       0.13490626      -0.01821607 </v>
   <v>       0.17398595       0.13490626       0.01821607 </v>
   <v>       0.17398595      -0.13490626       0.01821607 </v>
   <v>       0.17398595      -0.13490626      -0.01821607 </v>
   <v>      -0.07615761       0.08847904       0.00632598 </v>
   <v>      -0.07615761      -0.08847904      -0.00632598 </v>
   <v>      -0.07615761      -0.08847904       0.00632598 </v>
   <v>      -0.07615761       0.08847904      -0.00632598 </v>
  </varray>
  <varray name="stress" >
   <v>       2.69978207       0.00000000       0.00000000 </v>
   <v>       0.00000000       0.41104251       0.00000000 </v>
   <v>       0.00000000       0.00000000      -6.70222501 </v>
  </varray>
  <energy>
   <i name="e_fr_energy">    -59.90113397 </i>
   <i name="e_wo_entrp">    -59.90113397 </i>
   <i name="e_0_energy">     -0.00000000 </i>
  </energy>
  <time name="totalsc">    6.12    6.17</time>
 </calculation>
 <calculation>
  <scstep>
   <time name="dav">    0.39    0.39</time>
   <time name="total">    0.58    0.58</time>
   <energy>
    <i name="alphaZ">     67.94962961 </i>
    <i name="ewald">  -1949.91549986 </i>
    <i name="hartreedc">   -378.77966890 </i>
    <i name="XCdc">   -241.29374442 </i>
    <i name="pawpsdc">   3855.02124053 </i>
    <i name="pawaedc">  -3487.62928852 </i>
    <i name="eentropy">     -0.00000000 </i>
    <i name="bandstr">   -218.61869833 </i>
    <i name="atom">   2293.35992167 </i>
    <i name="e_fr_energy">    -59.90610821 </i>
    <i name="e_wo_entrp">    -59.90610821 </i>
    <i name="e_0_energy">    -59.90610821 </i>
   </energy>
  </scstep>
  <scstep>
   <time name="dav">    0.34    0.34</time>
   <time name="total">    0.53    0.53</time>
   <energy>
    <i name="e_fr_energy">    -59.90607206 </i>
    <i name="e_wo_entrp">    -59.90607206 </i>
    <i name="e_0_energy">    -59.90607206 </i>
   </energy>
  </scstep>
  <scstep>
   <time name="dav">    0.27    0.27</time>
   <time name="total">    0.44    0.44</time>
   <energy>
    <i name="alphaZ">     67.94962961 </i>
    <i name="ewald">  -1949.91549986 </i>
    <i name="hartreedc">   -378.53909938 </i>
    <i name="XCdc">   -241.29977420 </i>
    <i name="pawpsdc">   3856.22785904 </i>
    <i name="pawaedc">  -3488.83509684 </i>
    <i name="eentropy">     -0.00000000 </i>
    <i name="bandstr">   -218.85393010 </i>
    <i name="atom">   2293.35992167 </i>
    <i name="e_fr_energy">    -59.90599006 </i>
    <i name="e_wo_entrp">    -59.90599006 </i>
    <i name="e_0_energy">    -59.90599006 </i>
   </energy>
  </scstep>
  <structure>
   <crystal>
    <varray name="basis" >
     <v>       6.95776960       0.00000000       0.00000000 </v>
     <v>       0.00000000       7.27109747       0.00000000 </v>
     <v>       0.00000000       0.00000000       8.77316257 </v>
    </varray>
    <i name="volume">    443.83974214 </i>
    <varray name="rec_basis" >
     <v>       0.14372422       0.00000000       0.00000000 </v>
     <v>       0.00000000       0.13753082       0.00000000 </v>
     <v>       0.00000000       0.00000000       0.11398398 </v>
    </varray>
   </crystal>
   <varray name="positions" >
    <v>       0.61885932       0.58584611       0.12259853 </v>
    <v>       0.11885932       0.91415389       0.62259853 </v>
    <v>       0.61885932       0.08584611       0.37740147 </v>
    <v>       0.11885932       0.41415389       0.87740147 </v>
    <v>       0.62230284       0.57359361       0.62638934 </v>
    <v>       0.12230284       0.42640639       0.37361066 </v>
    <v>       0.12230284       0.92640639       0.12638934 </v>
    <v>       0.62230284       0.07359361       0.87361066 </v>
    <v>       0.99990215       0.07418282       0.87041816 </v>
    <v>       0.99990215       0.57418282       0.62958184 </v>
    <v>       0.49990215       0.92581718       0.12958184 </v>
    <v>       0.49990215       0.42581718       0.37041816 </v>
    <v>       0.49514470       0.91474345       0.62374259 </v>
    <v>       0.99514470       0.08525655       0.37625741 </v>
    <v>       0.99514470       0.58525655       0.12374259 </v>
    <v>       0.49514470       0.41474345       0.87625741 </v>
   </varray>
  </structure>
  <varray name="forces" >
   <v>       0.00546376       0.04383256      -0.00414040 </v>
   <v>       0.00546376      -0.04383256      -0.00414040 </v>
   <v>       0.00546376       0.04383256       0.00414040 </v>
   <v>       0.00546376      -0.04383256       0.00414040 </v>
   <v>      -0.05685560       0.00971088      -0.01517097 </v>
   <v>      -0.05685560      -0.00971088       0.01517097 </v>
   <v>      -0.05685560      -0.00971088      -0.01517097 </v>
   <v>      -0.05685560       0.00971088       0.01517097 </v>
   <v>       0.12777234       0.13013352      -0.02022326 </v>
   <v>       0.12777234       0.13013352       0.02022326 </v>
   <v>       0.12777234      -0.13013352       0.02022326 </v>
   <v>       0.12777234      -0.13013352      -0.02022326 </v>
   <v>      -0.07638051       0.08461632      -0.00337631 </v>
   <v>      -0.07638051      -0.08461632       0.00337631 </v>
   <v>      -0.07638051      -0.08461632      -0.00337631 </v>
   <v>      -0.07638051       0.08461632       0.00337631 </v>
  </varray>
  <varray name="stress" >
   <v>       1.77826032       0.00000000       0.00000000 </v>
   <v>       0.00000000       0.40768834       0.00000000 </v>
   <v>       0.00000000       0.00000000      -6.30184527 </v>
  </varray>
  <energy>
   <i name="e_fr_energy">    -59.90599006 </i>
   <i name="e_wo_entrp">    -59.90599006 </i>
   <i name="e_0_energy">     -0.00000000 </i>
  </energy>
  <time name="totalsc">    2.28    2.29</time>
 </calculation>
 <calculation>
  <scstep>
   <time name="dav">    0.26    0.26</time>
   <time name="total">    0.45    0.45</time>
   <energy>
    <i name="alphaZ">     68.07286317 </i>
    <i name="ewald">  -1951.60002256 </i>
    <i name="hartreedc">   -378.31178699 </i>
    <i name="XCdc">   -241.26967199 </i>
    <i name="pawpsdc">   3856.55607225 </i>
    <i name="pawaedc">  -3489.16391613 </i>
    <i name="eentropy">     -0.00000000 </i>
    <i name="bandstr">   -217.56034623 </i>
    <i name="atom">   2293.35992167 </i>
    <i name="e_fr_energy">    -59.91688682 </i>
    <i name="e_wo_entrp">    -59.91688682 </i>
    <i name="e_0_energy">    -59.91688682 </i>
   </energy>
  </scstep>
  <scstep>
   <time name="dav">    0.43    0.43</time>
   <time name="total">    0.62    0.62</time>
   <energy>
    <i name="e_fr_energy">    -59.91657555 </i>
    <i name="e_wo_entrp">    -59.91657555 </i>
    <i name="e_0_energy">    -59.91657555 </i>
   </energy>
  </scstep>
  <scstep>
   <time name="dav">    0.28    0.28</time>
   <time name="total">    0.47    0.47</time>
   <energy>
    <i name="e_fr_energy">    -59.91584317 </i>
    <i name="e_wo_entrp">    -59.91584317 </i>
    <i name="e_0_energy">    -59.91584317 </i>
   </energy>
  </scstep>
  <scstep>
   <time name="dav">    0.39    0.39</time>
   <time name="total">    0.57    0.57</time>
   <energy>
    <i name="e_fr_energy">    -59.91560475 </i>
    <i name="e_wo_entrp">    -59.91560475 </i>
    <i name="e_0_energy">    -59.91560475 </i>
   </energy>
  </scstep>
  <scstep>
   <time name="dav">    0.28    0.28</time>
   <time name="total">    0.45    0.45</time>
   <energy>
    <i name="alphaZ">     68.07286317 </i>
    <i name="ewald">  -1951.60002256 </i>
    <i name="hartreedc">   -377.52536854 </i>
    <i name="XCdc">   -241.28051077 </i>
    <i name="pawpsdc">   3858.22029620 </i>
    <i name="pawaedc">  -3490.83016641 </i>
    <i name="eentropy">     -0.00000000 </i>
    <i name="bandstr">   -218.33262124 </i>
    <i name="atom">   2293.35992167 </i>
    <i name="e_fr_energy">    -59.91560849 </i>
    <i name="e_wo_entrp">    -59.91560849 </i>
    <i name="e_0_energy">    -59.91560849 </i>
   </energy>
  </scstep>
  <structure>
   <crystal>
    <varray name="basis" >
     <v>       6.96718507       0.00000000       0.00000000 </v>
     <v>       0.00000000       7.27259610       0.00000000 </v>
     <v>       0.00000000       0.00000000       8.74364361 </v>
    </varray>
    <i name="volume">    443.03625092 </i>
    <varray name="rec_basis" >
     <v>       0.14352999       0.00000000       0.00000000 </v>
     <v>       0.00000000       0.13750248       0.00000000 </v>
     <v>       0.00000000       0.00000000       0.11436880 </v>
    </varray>
   </crystal>
   <varray name="positions" >
    <v>       0.61885803       0.58602547       0.12258504 </v>
    <v>       0.11885803       0.91397453       0.62258504 </v>
    <v>       0.61885803       0.08602547       0.37741496 </v>
    <v>       0.11885803       0.41397453       0.87741496 </v>
    <v>       0.62189714       0.57358297       0.62630287 </v>
    <v>       0.12189714       0.42641703       0.37369713 </v>
    <v>       0.12189714       0.92641703       0.12630287 </v>
    <v>       0.62189714       0.07358297       0.87369713 </v>
    <v>       0.00062596       0.07471987       0.87035806 </v>
    <v>       0.00062596       0.57471987       0.62964194 </v>
    <v>       0.50062596       0.92528013       0.12964194 </v>
    <v>       0.50062596       0.42528013       0.37035806 </v>
    <v>       0.49482787       0.91509568       0.62376346 </v>
    <v>       0.99482787       0.08490432       0.37623654 </v>
    <v>       0.99482787       0.58490432       0.12376346 </v>
    <v>       0.49482787       0.41509568       0.87623654 </v>
   </varray>
  </structure>
  <varray name="forces" >
   <v>       0.01832579       0.04090604      -0.00435622 </v>
   <v>       0.01832579      -0.04090604      -0.00435622 </v>
   <v>       0.01832579       0.04090604       0.00435622 </v>
   <v>       0.01832579      -0.04090604       0.00435622 </v>
   <v>       0.00774816       0.04209354      -0.01253014 </v>
   <v>       0.00774816      -0.04209354       0.01253014 </v>
   <v>       0.00774816      -0.04209354      -0.01253014 </v>
   <v>       0.00774816       0.04209354       0.01253014 </v>
   <v>       0.01632725       0.12044831      -0.06917590 </v>
   <v>       0.01632725       0.12044831       0.06917590 </v>
   <v>       0.01632725      -0.12044831       0.06917590 </v>
   <v>       0.01632725      -0.12044831      -0.06917590 </v>
   <v>      -0.04240121       0.03069770      -0.06875956 </v>
   <v>      -0.04240121      -0.03069770       0.06875956 </v>
   <v>      -0.04240121      -0.03069770      -0.06875956 </v>
   <v>      -0.04240121       0.03069770       0.06875956 </v>
  </varray>
  <varray name="stress" >
   <v>      -0.56931752       0.00000000       0.00000000 </v>
   <v>       0.00000000       1.41494078       0.00000000 </v>
   <v>       0.00000000       0.00000000      -2.89655187 </v>
  </varray>
  <energy>
   <i name="e_fr_energy">    -59.91560849 </i>
   <i name="e_wo_entrp">    -59.91560849 </i>
   <i name="e_0_energy">     -0.00000000 </i>
  </energy>
  <time name="totalsc">    3.21    3.21</time>
 </calculation>
 <calculation>
  <scstep>
   <time name="dav">    0.36    0.36</time>
   <time name="total">    0.55    0.55</time>
   <energy>
    <i name="alphaZ">     68.32272527 </i>
    <i name="ewald">  -1954.89749624 </i>
    <i name="hartreedc">   -377.20437511 </i>
    <i name="XCdc">   -241.22284224 </i>
    <i name="pawpsdc">   3857.60761885 </i>
    <i name="pawaedc">  -3490.21760384 </i>
    <i name="eentropy">     -0.00000000 </i>
    <i name="bandstr">   -215.66775266 </i>
    <i name="atom">   2293.35992167 </i>
    <i name="e_fr_energy">    -59.91980430 </i>
    <i name="e_wo_entrp">    -59.91980430 </i>
    <i name="e_0_energy">    -59.91980430 </i>
   </energy>
  </scstep>
  <scstep>
   <time name="dav">    0.35    0.35</time>
   <time name="total">    0.54    0.54</time>
   <energy>
    <i name="e_fr_energy">    -59.91886721 </i>
    <i name="e_wo_entrp">    -59.91886721 </i>
    <i name="e_0_energy">    -59.91886721 </i>
   </energy>
  </scstep>
  <scstep>
   <time name="dav">    0.35    0.36</time>
   <time name="total">    0.54    0.54</time>
   <energy>
    <i name="e_fr_energy">    -59.91595055 </i>
    <i name="e_wo_entrp">    -59.91595055 </i>
    <i name="e_0_energy">    -59.91595055 </i>
   </energy>
  </scstep>
  <scstep>
   <time name="dav">    0.38    0.38</time>
   <time name="total">    0.57    0.57</time>
   <energy>
    <i name="e_fr_energy">    -59.91499290 </i>
    <i name="e_wo_entrp">    -59.91499290 </i>
    <i name="e_0_energy">    -59.91499290 </i>
   </energy>
  </scstep>
  <scstep>
   <time name="dav">    0.36    0.36</time>
   <time name="total">    0.54    0.54</time>
   <energy>
    <i name="alphaZ">     68.32272527 </i>
    <i name="ewald">  -1954.89749624 </i>
    <i name="hartreedc">   -375.63021431 </i>
    <i name="XCdc">   -241.24548172 </i>
    <i name="pawpsdc">   3865.30768529 </i>
    <i name="pawaedc">  -3497.92311181 </i>
    <i name="eentropy">     -0.00000000 </i>
    <i name="bandstr">   -217.20903496 </i>
    <i name="atom">   2293.35992167 </i>
    <i name="e_fr_energy">    -59.91500680 </i>
    <i name="e_wo_entrp">    -59.91500680 </i>
    <i name="e_0_energy">    -59.91500680 </i>
   </energy>
  </scstep>
  <structure>
   <crystal>
    <varray name="basis" >
     <v>       6.98601601       0.00000000       0.00000000 </v>
     <v>       0.00000000       7.27559337       0.00000000 </v>
     <v>       0.00000000       0.00000000       8.68460568 </v>
    </varray>
    <i name="volume">    441.41602910 </i>
    <varray name="rec_basis" >
     <v>       0.14314310       0.00000000       0.00000000 </v>
     <v>       0.00000000       0.13744583       0.00000000 </v>
     <v>       0.00000000       0.00000000       0.11514628 </v>
    </varray>
   </crystal>
   <varray name="positions" >
    <v>       0.61885546       0.58638411       0.12255798 </v>
    <v>       0.11885546       0.91361589       0.62255798 </v>
    <v>       0.61885546       0.08638411       0.37744202 </v>
    <v>       0.11885546       0.41361589       0.87744202 </v>
    <v>       0.62108685       0.57356167       0.62612935 </v>
    <v>       0.12108685       0.42643833       0.37387065 </v>
    <v>       0.12108685       0.92643833       0.12612935 </v>
    <v>       0.62108685       0.07356167       0.87387065 </v>
    <v>       0.00207163       0.07579375       0.87023746 </v>
    <v>       0.00207163       0.57579375       0.62976254 </v>
    <v>       0.50207163       0.92420625       0.12976254 </v>
    <v>       0.50207163       0.42420625       0.37023746 </v>
    <v>       0.49419507       0.91579999       0.62380534 </v>
    <v>       0.99419507       0.08420001       0.37619466 </v>
    <v>       0.99419507       0.58420001       0.12380534 </v>
    <v>       0.49419507       0.41579999       0.87619466 </v>
   </varray>
  </structure>
  <varray name="forces" >
   <v>       0.02712681       0.03367501      -0.00340020 </v>
   <v>       0.02712681      -0.03367501      -0.00340020 </v>
   <v>       0.02712681       0.03367501       0.00340020 </v>
   <v>       0.02712681      -0.03367501       0.00340020 </v>
   <v>       0.13938046       0.12967113      -0.01121987 </v>
   <v>       0.13938046      -0.12967113       0.01121987 </v>
   <v>       0.13938046      -0.12967113      -0.01121987 </v>
   <v>       0.13938046       0.12967113       0.01121987 </v>
   <v>      -0.12835937       0.12084081      -0.14975485 </v>
   <v>      -0.12835937       0.12084081       0.14975485 </v>
   <v>      -0.12835937      -0.12084081       0.14975485 </v>
   <v>      -0.12835937      -0.12084081      -0.14975485 </v>
   <v>      -0.03814790      -0.04431922      -0.12225872 </v>
   <v>      -0.03814790       0.04431922       0.12225872 </v>
   <v>      -0.03814790       0.04431922      -0.12225872 </v>
   <v>      -0.03814790      -0.04431922       0.12225872 </v>
  </varray>
  <varray name="stress" >
   <v>      -4.93253230       0.00000000       0.00000000 </v>
   <v>       0.00000000       2.29241248       0.00000000 </v>
   <v>       0.00000000       0.00000000       1.81427875 </v>
  </varray>
  <energy>
   <i name="e_fr_energy">    -59.91500680 </i>
   <i name="e_wo_entrp">    -59.91500680 </i>
   <i name="e_0_energy">     -0.00000000 </i>
  </energy>
  <time name="totalsc">    3.37    3.38</time>
 </calculation>
 <calculation>
  <scstep>
   <time name="dav">    0.24    0.25</time>
   <time name="total">    0.43    0.43</time>
   <energy>
    <i name="alphaZ">     68.20086693 </i>
    <i name="ewald">  -1953.30923545 </i>
    <i name="hartreedc">   -375.74830910 </i>
    <i name="XCdc">   -241.27507482 </i>
    <i name="pawpsdc">   3864.18324636 </i>
    <i name="pawaedc">  -3496.79883848 </i>
    <i name="eentropy">     -0.00000000 </i>
    <i name="bandstr">   -218.53196053 </i>
    <i name="atom">   2293.35992167 </i>
    <i name="e_fr_energy">    -59.91938341 </i>
    <i name="e_wo_entrp">    -59.91938341 </i>
    <i name="e_0_energy">    -59.91938341 </i>
   </energy>
  </scstep>
  <scstep>
   <time name="dav">    0.41    0.42</time>
   <time name="total">    0.59    0.60</time>
   <energy>
    <i name="e_fr_energy">    -59.91910568 </i>
    <i name="e_wo_entrp">    -59.91910568 </i>
    <i name="e_0_energy">    -59.91910568 </i>
   </energy>
  </scstep>
  <scstep>
   <time name="dav">    0.30    0.31</time>
   <time name="total">    0.49    0.49</time>
   <energy>
    <i name="e_fr_energy">    -59.91840609 </i>
    <i name="e_wo_entrp">    -59.91840609 </i>
    <i name="e_0_energy">    -59.91840609 </i>
   </energy>
  </scstep>
  <scstep>
   <time name="dav">    0.36    0.36</time>
   <time name="total">    0.54    0.54</time>
   <energy>
    <i name="e_fr_energy">    -59.91815919 </i>
    <i name="e_wo_entrp">    -59.91815919 </i>
    <i name="e_0_energy">    -59.91815919 </i>
   </energy>
  </scstep>
  <scstep>
   <time name="dav">    0.23    0.23</time>
   <time name="total">    0.40    0.40</time>
   <energy>
    <i name="alphaZ">     68.20086693 </i>
    <i name="ewald">  -1953.30923545 </i>
    <i name="hartreedc">   -376.51884290 </i>
    <i name="XCdc">   -241.26527479 </i>
    <i name="pawpsdc">   3858.97856522 </i>
    <i name="pawaedc">  -3491.59102607 </i>
    <i name="eentropy">     -0.00000000 </i>
    <i name="bandstr">   -217.77313265 </i>
    <i name="atom">   2293.35992167 </i>
    <i name="e_fr_energy">    -59.91815804 </i>
    <i name="e_wo_entrp">    -59.91815804 </i>
    <i name="e_0_energy">    -59.91815804 </i>
   </energy>
  </scstep>
  <structure>
   <crystal>
    <varray name="basis" >
     <v>       6.97687499       0.00000000       0.00000000 </v>
     <v>       0.00000000       7.27413842       0.00000000 </v>
     <v>       0.00000000       0.00000000       8.71326421 </v>
    </varray>
    <i name="volume">    442.20473203 </i>
    <varray name="rec_basis" >
     <v>       0.14333065       0.00000000       0.00000000 </v>
     <v>       0.00000000       0.13747333       0.00000000 </v>
     <v>       0.00000000       0.00000000       0.11476755 </v>
    </varray>
   </crystal>
   <varray name="positions" >
    <v>       0.61885670       0.58621009       0.12257120 </v>
    <v>       0.11885670       0.91378991       0.62257120 </v>
    <v>       0.61885670       0.08621009       0.37742880 </v>
    <v>       0.11885670       0.41378991       0.87742880 </v>
    <v>       0.62147912       0.57357201       0.62621416 </v>
    <v>       0.12147912       0.42642799       0.37378584 </v>
    <v>       0.12147912       0.92642799       0.12621416 </v>
    <v>       0.62147912       0.07357201       0.87378584 </v>
    <v>       0.00137176       0.07527268       0.87029640 </v>
    <v>       0.00137176       0.57527268       0.62970360 </v>
    <v>       0.50137176       0.92472732       0.12970360 </v>
    <v>       0.50137176       0.42472732       0.37029640 </v>
    <v>       0.49450142       0.91545824       0.62378487 </v>
    <v>       0.99450142       0.08454176       0.37621513 </v>
    <v>       0.99450142       0.58454176       0.12378487 </v>
    <v>       0.49450142       0.41545824       0.87621513 </v>
   </varray>
  </structure>
  <varray name="forces" >
   <v>       0.02041032       0.03641249      -0.00383864 </v>
   <v>       0.02041032      -0.03641249      -0.00383864 </v>
   <v>       0.02041032       0.03641249       0.00383864 </v>
   <v>       0.02041032      -0.03641249       0.00383864 </v>
   <v>       0.08952102       0.09386773      -0.02133284 </v>
   <v>       0.08952102      -0.09386773       0.02133284 </v>
   <v>       0.08952102      -0.09386773      -0.02133284 </v>
   <v>       0.08952102       0.09386773       0.02133284 </v>
   <v>      -0.06600508       0.10185313      -0.10859976 </v>
   <v>      -0.06600508       0.10185313       0.10859976 </v>
   <v>      -0.06600508      -0.10185313       0.10859976 </v>
   <v>      -0.06600508      -0.10185313      -0.10859976 </v>
   <v>      -0.04392626      -0.01718310      -0.08379067 </v>
   <v>      -0.04392626       0.01718310       0.08379067 </v>
   <v>      -0.04392626       0.01718310      -0.08379067 </v>
   <v>      -0.04392626      -0.01718310       0.08379067 </v>
  </varray>
  <varray name="stress" >
   <v>      -3.00030550       0.00000000       0.00000000 </v>
   <v>       0.00000000       2.01097281       0.00000000 </v>
   <v>       0.00000000       0.00000000      -0.53909737 </v>
  </varray>
  <energy>
   <i name="e_fr_energy">    -59.91815804 </i>
   <i name="e_wo_entrp">    -59.91815804 </i>
   <i name="e_0_energy">     -0.00000000 </i>
  </energy>
  <time name="totalsc">    3.12    3.14</time>
 </calculation>
 <calculation>
  <scstep>
   <time name="dav">    0.31    0.31</time>
   <time name="total">    0.49    0.49</time>
   <energy>
    <i name="alphaZ">     68.28985775 </i>
    <i name="ewald">  -1954.60140274 </i>
    <i name="hartreedc">   -376.32878378 </i>
    <i name="XCdc">   -241.24683870 </i>
    <i name="pawpsdc">   3859.49395712 </i>
    <i name="pawaedc">  -3492.10625499 </i>
    <i name="eentropy">     -0.00000000 </i>
    <i name="bandstr">   -216.78462427 </i>
    <i name="atom">   2293.35992167 </i>
    <i name="e_fr_energy">    -59.92416793 </i>
    <i name="e_wo_entrp">    -59.92416793 </i>
    <i name="e_0_energy">    -59.92416793 </i>
   </energy>
  </scstep>
  <scstep>
   <time name="dav">    0.43    0.43</time>
   <time name="total">    0.62    0.62</time>
   <energy>
    <i name="e_fr_energy">    -59.92407202 </i>
    <i name="e_wo_entrp">    -59.92407202 </i>
    <i name="e_0_energy">    -59.92407202 </i>
   </energy>
  </scstep>
  <scstep>
   <time name="dav">    0.30    0.30</time>
   <time name="total">    0.49    0.49</time>
   <energy>
    <i name="e_fr_energy">    -59.92386536 </i>
    <i name="e_wo_entrp">    -59.92386536 </i>
    <i name="e_0_energy">    -59.92386536 </i>
   </energy>
  </scstep>
  <scstep>
   <time name="dav">    0.22    0.22</time>
   <time name="total">    0.39    0.39</time>
   <energy>
    <i name="alphaZ">     68.28985775 </i>
    <i name="ewald">  -1954.60140274 </i>
    <i name="hartreedc">   -375.75011299 </i>
    <i name="XCdc">   -241.25567527 </i>
    <i name="pawpsdc">   3861.81448379 </i>
    <i name="pawaedc">  -3494.42501210 </i>
    <i name="eentropy">     -0.00000000 </i>
    <i name="bandstr">   -217.35585109 </i>
    <i name="atom">   2293.35992167 </i>
    <i name="e_fr_energy">    -59.92379097 </i>
    <i name="e_wo_entrp">    -59.92379097 </i>
    <i name="e_0_energy">    -59.92379097 </i>
   </energy>
  </scstep>
  <structure>
   <crystal>
    <varray name="basis" >
     <v>       6.97302058       0.00000000       0.00000000 </v>
     <v>       0.00000000       7.28015182       0.00000000 </v>
     <v>       0.00000000       0.00000000       8.69952799 </v>
    </varray>
    <i name="volume">    441.62848011 </i>
    <varray name="rec_basis" >
     <v>       0.14340987       0.00000000       0.00000000 </v>
     <v>       0.00000000       0.13735977       0.00000000 </v>
     <v>       0.00000000       0.00000000       0.11494877 </v>
    </varray>
   </crystal>
   <varray name="positions" >
    <v>       0.61891877       0.58639067       0.12255621 </v>
    <v>       0.11891877       0.91360933       0.62255621 </v>
    <v>       0.61891877       0.08639067       0.37744379 </v>
    <v>       0.11891877       0.41360933       0.87744379 </v>
    <v>       0.62158783       0.57384374       0.62612609 </v>
    <v>       0.12158783       0.42615626       0.37387391 </v>
    <v>       0.12158783       0.92615626       0.12612609 </v>
    <v>       0.62158783       0.07384374       0.87387391 </v>
    <v>       0.00146519       0.07579228       0.87000493 </v>
    <v>       0.00146519       0.57579228       0.62999507 </v>
    <v>       0.50146519       0.92420772       0.12999507 </v>
    <v>       0.50146519       0.42420772       0.37000493 </v>
    <v>       0.49423721       0.91555200       0.62358774 </v>
    <v>       0.99423721       0.08444800       0.37641226 </v>
    <v>       0.99423721       0.58444800       0.12358774 </v>
    <v>       0.49423721       0.41555200       0.87641226 </v>
   </varray>
  </structure>
  <varray name="forces" >
   <v>       0.02406428       0.03343401      -0.00344323 </v>
   <v>       0.02406428      -0.03343401      -0.00344323 </v>
   <v>       0.02406428       0.03343401       0.00344323 </v>
   <v>       0.02406428      -0.03343401       0.00344323 </v>
   <v>       0.07609489       0.09678981      -0.01985748 </v>
   <v>       0.07609489      -0.09678981       0.01985748 </v>
   <v>       0.07609489      -0.09678981      -0.01985748 </v>
   <v>       0.07609489       0.09678981       0.01985748 </v>
   <v>      -0.05610573       0.09521778      -0.11460857 </v>
   <v>      -0.05610573       0.09521778       0.11460857 </v>
   <v>      -0.05610573      -0.09521778       0.11460857 </v>
   <v>      -0.05610573      -0.09521778      -0.11460857 </v>
   <v>      -0.04405344      -0.02297406      -0.09063586 </v>
   <v>      -0.04405344       0.02297406       0.09063586 </v>
   <v>      -0.04405344       0.02297406      -0.09063586 </v>
   <v>      -0.04405344      -0.02297406       0.09063586 </v>
  </varray>
  <varray name="stress" >
   <v>      -2.41995964       0.00000000       0.00000000 </v>
   <v>       0.00000000       1.72552674       0.00000000 </v>
   <v>       0.00000000       0.00000000      -0.70526723 </v>
  </varray>
  <energy>
   <i name="e_fr_energy">    -59.92379097 </i>
   <i name="e_wo_entrp">    -59.92379097 </i>
   <i name="e_0_energy">     -0.00000000 </i>
  </energy>
  <time name="totalsc">    2.65    2.66</time>
 </calculation>
 <calculation>
  <scstep>
   <time name="dav">    0.32    0.32</time>
   <time name="total">    0.50    0.51</time>
   <energy>
    <i name="alphaZ">     68.55896136 </i>
    <i name="ewald">  -1958.47727312 </i>
    <i name="hartreedc">   -375.18245448 </i>
    <i name="XCdc">   -241.20020162 </i>
    <i name="pawpsdc">   3860.97251592 </i>
    <i name="pawaedc">  -3493.58377334 </i>
    <i name="eentropy">     -0.00000000 </i>
    <i name="bandstr">   -214.38819569 </i>
    <i name="atom">   2293.35992167 </i>
    <i name="e_fr_energy">    -59.94049930 </i>
    <i name="e_wo_entrp">    -59.94049930 </i>
    <i name="e_0_energy">    -59.94049930 </i>
   </energy>
  </scstep>
  <scstep>
   <time name="dav">    0.42    0.42</time>
   <time name="total">    0.61    0.62</time>
   <energy>
    <i name="e_fr_energy">    -59.93964244 </i>
    <i name="e_wo_entrp">    -59.93964244 </i>
    <i name="e_0_energy">    -59.93964244 </i>
   </energy>
  </scstep>
  <scstep>
   <time name="dav">    0.30    0.30</time>
   <time name="total">    0.49    0.49</time>
   <energy>
    <i name="e_fr_energy">    -59.93778825 </i>
    <i name="e_wo_entrp">    -59.93778825 </i>
    <i name="e_0_energy">    -59.93778825 </i>
   </energy>
  </scstep>
  <scstep>
   <time name="dav">    0.32    0.32</time>
   <time name="total">    0.51    0.51</time>
   <energy>
    <i name="e_fr_energy">    -59.93713685 </i>
    <i name="e_wo_entrp">    -59.93713685 </i>
    <i name="e_0_energy">    -59.93713685 </i>
   </energy>
  </scstep>
  <scstep>
   <time name="dav">    0.29    0.29</time>
   <time name="total">    0.46    0.46</time>
   <energy>
    <i name="alphaZ">     68.55896136 </i>
    <i name="ewald">  -1958.47727312 </i>
    <i name="hartreedc">   -373.47061979 </i>
    <i name="XCdc">   -241.22386966 </i>
    <i name="pawpsdc">   3861.05072664 </i>
    <i name="pawaedc">  -3493.65885237 </i>
    <i name="eentropy">     -0.00000000 </i>
    <i name="bandstr">   -216.07612568 </i>
    <i name="atom">   2293.35992167 </i>
    <i name="e_fr_energy">    -59.93713094 </i>
    <i name="e_wo_entrp">    -59.93713094 </i>
    <i name="e_0_energy">    -59.93713094 </i>
   </energy>
  </scstep>
  <structure>
   <crystal>
    <varray name="basis" >
     <v>       6.96145735       0.00000000       0.00000000 </v>
     <v>       0.00000000       7.29819204       0.00000000 </v>
     <v>       0.00000000       0.00000000       8.65831930 </v>
    </varray>
    <i name="volume">    439.89502592 </i>
    <varray name="rec_basis" >
     <v>       0.14364808       0.00000000       0.00000000 </v>
     <v>       0.00000000       0.13702024       0.00000000 </v>
     <v>       0.00000000       0.00000000       0.11549586 </v>
    </varray>
   </crystal>
   <varray name="positions" >
    <v>       0.61910506       0.58693197       0.12251117 </v>
    <v>       0.11910506       0.91306803       0.62251117 </v>
    <v>       0.61910506       0.08693197       0.37748883 </v>
    <v>       0.11910506       0.41306803       0.87748883 </v>
    <v>       0.62191412       0.57465826       0.62586147 </v>
    <v>       0.12191412       0.42534174       0.37413853 </v>
    <v>       0.12191412       0.92534174       0.12586147 </v>
    <v>       0.62191412       0.07465826       0.87413853 </v>
    <v>       0.00174566       0.07734981       0.86912914 </v>
    <v>       0.00174566       0.57734981       0.63087086 </v>
    <v>       0.50174566       0.92265019       0.13087086 </v>
    <v>       0.50174566       0.42265019       0.36912914 </v>
    <v>       0.49344416       0.91583305       0.62299540 </v>
    <v>       0.99344416       0.08416695       0.37700460 </v>
    <v>       0.99344416       0.58416695       0.12299540 </v>
    <v>       0.49344416       0.41583305       0.87700460 </v>
   </varray>
  </structure>
  <varray name="forces" >
   <v>       0.01781120       0.02336087      -0.00495811 </v>
   <v>       0.01781120      -0.02336087      -0.00495811 </v>
   <v>       0.01781120       0.02336087       0.00495811 </v>
   <v>       0.01781120      -0.02336087       0.00495811 </v>
   <v>       0.02456244       0.09802654      -0.00658932 </v>
   <v>       0.02456244      -0.09802654       0.00658932 </v>
   <v>       0.02456244      -0.09802654      -0.00658932 </v>
   <v>       0.02456244       0.09802654       0.00658932 </v>
   <v>      -0.01391715       0.05297521      -0.08601735 </v>
   <v>      -0.01391715       0.05297521       0.08601735 </v>
   <v>      -0.01391715      -0.05297521       0.08601735 </v>
   <v>      -0.01391715      -0.05297521      -0.08601735 </v>
   <v>      -0.02845648      -0.05261705      -0.08244293 </v>
   <v>      -0.02845648       0.05261705       0.08244293 </v>
   <v>      -0.02845648       0.05261705      -0.08244293 </v>
   <v>      -0.02845648      -0.05261705       0.08244293 </v>
  </varray>
  <varray name="stress" >
   <v>      -1.39438632       0.00000000       0.00000000 </v>
   <v>       0.00000000       0.25117105       0.00000000 </v>
   <v>       0.00000000       0.00000000      -0.46623538 </v>
  </varray>
  <energy>
   <i name="e_fr_energy">    -59.93713094 </i>
   <i name="e_wo_entrp">    -59.93713094 </i>
   <i name="e_0_energy">     -0.00000000 </i>
  </energy>
  <time name="totalsc">    3.24    3.25</time>
 </calculation>
 <calculation>
  <scstep>
   <time name="dav">    0.34    0.34</time>
   <time name="total">    0.52    0.52</time>
   <energy>
    <i name="alphaZ">     69.10690241 </i>
    <i name="ewald">  -1966.22576451 </i>
    <i name="hartreedc">   -372.40564389 </i>
    <i name="XCdc">   -241.11590305 </i>
    <i name="pawpsdc">   3859.28763585 </i>
    <i name="pawaedc">  -3491.89610235 </i>
    <i name="eentropy">     -0.00000000 </i>
    <i name="bandstr">   -210.07339905 </i>
    <i name="atom">   2293.35992167 </i>
    <i name="e_fr_energy">    -59.96235292 </i>
    <i name="e_wo_entrp">    -59.96235292 </i>
    <i name="e_0_energy">    -59.96235292 </i>
   </energy>
  </scstep>
  <scstep>
   <time name="dav">    0.38    0.38</time>
   <time name="total">    0.56    0.56</time>
   <energy>
    <i name="e_fr_energy">    -59.95870491 </i>
    <i name="e_wo_entrp">    -59.95870491 </i>
    <i name="e_0_energy">    -59.95870491 </i>
   </energy>
  </scstep>
  <scstep>
   <time name="dav">    0.32    0.32</time>
   <time name="total">    0.50    0.50</time>
   <energy>
    <i name="e_fr_energy">    -59.95124078 </i>
    <i name="e_wo_entrp">    -59.95124078 </i>
    <i name="e_0_energy">    -59.95124078 </i>
   </energy>
  </scstep>
  <scstep>
   <time name="dav">    0.40    0.40</time>
   <time name="total">    0.58    0.58</time>
   <energy>
    <i name="e_fr_energy">    -59.94866578 </i>
    <i name="e_wo_entrp">    -59.94866578 </i>
    <i name="e_0_energy">    -59.94866578 </i>
   </energy>
  </scstep>
  <scstep>
   <time name="dav">    0.30    0.30</time>
   <time name="total">    0.47    0.47</time>
   <energy>
    <i name="alphaZ">     69.10690241 </i>
    <i name="ewald">  -1966.22576451 </i>
    <i name="hartreedc">   -368.98650108 </i>
    <i name="XCdc">   -241.16229303 </i>
    <i name="pawpsdc">   3858.34463851 </i>
    <i name="pawaedc">  -3490.94616953 </i>
    <i name="eentropy">     -0.00000000 </i>
    <i name="bandstr">   -213.43938485 </i>
    <i name="atom">   2293.35992167 </i>
    <i name="e_fr_energy">    -59.94865040 </i>
    <i name="e_wo_entrp">    -59.94865040 </i>
    <i name="e_0_energy">    -59.94865040 </i>
   </energy>
  </scstep>
  <structure>
   <crystal>
    <varray name="basis" >
     <v>       6.93833090       0.00000000       0.00000000 </v>
     <v>       0.00000000       7.33427246       0.00000000 </v>
     <v>       0.00000000       0.00000000       8.57590193 </v>
    </varray>
    <i name="volume">    436.40714653 </i>
    <varray name="rec_basis" >
     <v>       0.14412688       0.00000000       0.00000000 </v>
     <v>       0.00000000       0.13634618       0.00000000 </v>
     <v>       0.00000000       0.00000000       0.11660581 </v>
    </varray>
   </crystal>
   <varray name="positions" >
    <v>       0.61947828       0.58801189       0.12242066 </v>
    <v>       0.11947828       0.91198811       0.62242066 </v>
    <v>       0.61947828       0.08801189       0.37757934 </v>
    <v>       0.11947828       0.41198811       0.87757934 </v>
    <v>       0.62256780       0.57628327       0.62532972 </v>
    <v>       0.12256780       0.42371673       0.37467028 </v>
    <v>       0.12256780       0.92371673       0.12532972 </v>
    <v>       0.62256780       0.07628327       0.87467028 </v>
    <v>       0.00230752       0.08045717       0.86736922 </v>
    <v>       0.00230752       0.58045717       0.63263078 </v>
    <v>       0.50230752       0.91954283       0.13263078 </v>
    <v>       0.50230752       0.41954283       0.36736922 </v>
    <v>       0.49185541       0.91639378       0.62180508 </v>
    <v>       0.99185541       0.08360622       0.37819492 </v>
    <v>       0.99185541       0.58360622       0.12180508 </v>
    <v>       0.49185541       0.41639378       0.87819492 </v>
   </varray>
  </structure>
  <varray name="forces" >
   <v>       0.00488324       0.00283589      -0.00645419 </v>
   <v>       0.00488324      -0.00283589      -0.00645419 </v>
   <v>       0.00488324       0.00283589       0.00645419 </v>
   <v>       0.00488324      -0.00283589       0.00645419 </v>
   <v>      -0.05722422       0.11863826      -0.02097946 </v>
   <v>      -0.05722422      -0.11863826       0.02097946 </v>
   <v>      -0.05722422      -0.11863826      -0.02097946 </v>
   <v>      -0.05722422       0.11863826       0.02097946 </v>
   <v>       0.03745774       0.01173156       0.01065806 </v>
   <v>       0.03745774       0.01173156      -0.01065806 </v>
   <v>       0.03745774      -0.01173156      -0.01065806 </v>
   <v>       0.03745774      -0.01173156       0.01065806 </v>
   <v>       0.01488325      -0.06942663      -0.03929075 </v>
   <v>       0.01488325       0.06942663       0.03929075 </v>
   <v>       0.01488325       0.06942663      -0.03929075 </v>
   <v>       0.01488325      -0.06942663       0.03929075 </v>
  </varray>
  <varray name="stress" >
   <v>       1.90970205       0.00000000       0.00000000 </v>
   <v>       0.00000000      -1.63297395       0.00000000 </v>
   <v>       0.00000000       0.00000000       0.58640663 </v>
  </varray>
  <energy>
   <i name="e_fr_energy">    -59.94865040 </i>
   <i name="e_wo_entrp">    -59.94865040 </i>
   <i name="e_0_energy">     -0.00000000 </i>
  </energy>
  <time name="totalsc">    3.29    3.45</time>
 </calculation>
 <calculation>
  <scstep>
   <time name="dav">    0.28    0.28</time>
   <time name="total">    0.46    0.46</time>
   <energy>
    <i name="alphaZ">     69.17707493 </i>
    <i name="ewald">  -1967.55728980 </i>
    <i name="hartreedc">   -368.60195173 </i>
    <i name="XCdc">   -241.15858648 </i>
    <i name="pawpsdc">   3854.44687982 </i>
    <i name="pawaedc">  -3487.04885682 </i>
    <i name="eentropy">     -0.00000000 </i>
    <i name="bandstr">   -212.56849193 </i>
    <i name="atom">   2293.35992167 </i>
    <i name="e_fr_energy">    -59.95130034 </i>
    <i name="e_wo_entrp">    -59.95130034 </i>
    <i name="e_0_energy">    -59.95130034 </i>
   </energy>
  </scstep>
  <scstep>
   <time name="dav">    0.31    0.31</time>
   <time name="total">    0.49    0.49</time>
   <energy>
    <i name="e_fr_energy">    -59.95311266 </i>
    <i name="e_wo_entrp">    -59.95311266 </i>
    <i name="e_0_energy">    -59.95311266 </i>
   </energy>
  </scstep>
  <scstep>
   <time name="dav">    0.39    0.39</time>
   <time name="total">    0.58    0.58</time>
   <energy>
    <i name="e_fr_energy">    -59.95278230 </i>
    <i name="e_wo_entrp">    -59.95278230 </i>
    <i name="e_0_energy">    -59.95278230 </i>
   </energy>
  </scstep>
  <scstep>
   <time name="dav">    0.25    0.25</time>
   <time name="total">    0.44    0.44</time>
   <energy>
    <i name="e_fr_energy">    -59.95262334 </i>
    <i name="e_wo_entrp">    -59.95262334 </i>
    <i name="e_0_energy">    -59.95262334 </i>
   </energy>
  </scstep>
  <scstep>
   <time name="dav">    0.29    0.29</time>
   <time name="total">    0.47    0.47</time>
   <energy>
    <i name="alphaZ">     69.17707493 </i>
    <i name="ewald">  -1967.55728980 </i>
    <i name="hartreedc">   -368.10183791 </i>
    <i name="XCdc">   -241.16717874 </i>
    <i name="pawpsdc">   3847.36316904 </i>
    <i name="pawaedc">  -3479.95644250 </i>
    <i name="eentropy">     -0.00000000 </i>
    <i name="bandstr">   -213.07004411 </i>
    <i name="atom">   2293.35992167 </i>
    <i name="e_fr_energy">    -59.95262742 </i>
    <i name="e_wo_entrp">    -59.95262742 </i>
    <i name="e_0_energy">    -59.95262742 </i>
   </energy>
  </scstep>
  <structure>
   <crystal>
    <varray name="basis" >
     <v>       6.94627229       0.00000000       0.00000000 </v>
     <v>       0.00000000       7.33087143       0.00000000 </v>
     <v>       0.00000000       0.00000000       8.56137815 </v>
    </varray>
    <i name="volume">    435.96445959 </i>
    <varray name="rec_basis" >
     <v>       0.14396211       0.00000000       0.00000000 </v>
     <v>       0.00000000       0.13640943       0.00000000 </v>
     <v>       0.00000000       0.00000000       0.11680362 </v>
    </varray>
   </crystal>
   <varray name="positions" >
    <v>       0.61961116       0.58829540       0.12235343 </v>
    <v>       0.11961116       0.91170460       0.62235343 </v>
    <v>       0.61961116       0.08829540       0.37764657 </v>
    <v>       0.11961116       0.41170460       0.87764657 </v>
    <v>       0.62223260       0.57764409       0.62505310 </v>
    <v>       0.12223260       0.42235591       0.37494690 </v>
    <v>       0.12223260       0.92235591       0.12505310 </v>
    <v>       0.62223260       0.07764409       0.87494690 </v>
    <v>       0.00276751       0.08130211       0.86701320 </v>
    <v>       0.00276751       0.58130211       0.63298680 </v>
    <v>       0.50276751       0.91869789       0.13298680 </v>
    <v>       0.50276751       0.41869789       0.36701320 </v>
    <v>       0.49159772       0.91596187       0.62123946 </v>
    <v>       0.99159772       0.08403813       0.37876054 </v>
    <v>       0.99159772       0.58403813       0.12123946 </v>
    <v>       0.49159772       0.41596187       0.87876054 </v>
   </varray>
  </structure>
  <varray name="forces" >
   <v>      -0.00377453      -0.00631782      -0.00380281 </v>
   <v>      -0.00377453       0.00631782      -0.00380281 </v>
   <v>      -0.00377453      -0.00631782       0.00380281 </v>
   <v>      -0.00377453       0.00631782       0.00380281 </v>
   <v>      -0.01175866       0.04218951      -0.00545829 </v>
   <v>      -0.01175866      -0.04218951       0.00545829 </v>
   <v>      -0.01175866      -0.04218951      -0.00545829 </v>
   <v>      -0.01175866       0.04218951       0.00545829 </v>
   <v>       0.00433887      -0.04304132       0.05920561 </v>
   <v>       0.00433887      -0.04304132      -0.05920561 </v>
   <v>       0.00433887       0.04304132      -0.05920561 </v>
   <v>       0.00433887       0.04304132       0.05920561 </v>
   <v>       0.01119432       0.00453210       0.00421691 </v>
   <v>       0.01119432      -0.00453210      -0.00421691 </v>
   <v>       0.01119432      -0.00453210       0.00421691 </v>
   <v>       0.01119432       0.00453210      -0.00421691 </v>
  </varray>
  <varray name="stress" >
   <v>       0.02255687       0.00000000       0.00000000 </v>
   <v>       0.00000000       0.44338109       0.00000000 </v>
   <v>       0.00000000       0.00000000       0.05730810 </v>
  </varray>
  <energy>
   <i name="e_fr_energy">    -59.95262742 </i>
   <i name="e_wo_entrp">    -59.95262742 </i>
   <i name="e_0_energy">     -0.00000000 </i>
  </energy>
  <time name="totalsc">    3.17    3.17</time>
 </calculation>
 <calculation>
  <scstep>
   <time name="dav">    0.21    0.21</time>
   <time name="total">    0.40    0.40</time>
   <energy>
    <i name="alphaZ">     69.17506967 </i>
    <i name="ewald">  -1967.51983720 </i>
    <i name="hartreedc">   -368.10768328 </i>
    <i name="XCdc">   -241.16769536 </i>
    <i name="pawpsdc">   3846.66796029 </i>
    <i name="pawaedc">  -3479.26120254 </i>
    <i name="eentropy">     -0.00000000 </i>
    <i name="bandstr">   -213.09916178 </i>
    <i name="atom">   2293.35992167 </i>
    <i name="e_fr_energy">    -59.95262855 </i>
    <i name="e_wo_entrp">    -59.95262855 </i>
    <i name="e_0_energy">    -59.95262855 </i>
   </energy>
  </scstep>
  <scstep>
   <time name="dav">    0.16    0.16</time>
   <time name="total">    0.33    0.33</time>
   <energy>
    <i name="alphaZ">     69.17506967 </i>
    <i name="ewald">  -1967.51983720 </i>
    <i name="hartreedc">   -368.11724077 </i>
    <i name="XCdc">   -241.16754510 </i>
    <i name="pawpsdc">   3846.52231379 </i>
    <i name="pawaedc">  -3479.11571281 </i>
    <i name="eentropy">     -0.00000000 </i>
    <i name="bandstr">   -213.08959903 </i>
    <i name="atom">   2293.35992167 </i>
    <i name="e_fr_energy">    -59.95262979 </i>
    <i name="e_wo_entrp">    -59.95262979 </i>
    <i name="e_0_energy">    -59.95262979 </i>
   </energy>
  </scstep>
  <structure>
   <crystal>
    <varray name="basis" >
     <v>       6.94604595       0.00000000       0.00000000 </v>
     <v>       0.00000000       7.33096837       0.00000000 </v>
     <v>       0.00000000       0.00000000       8.56179210 </v>
    </varray>
    <i name="volume">    435.97709742 </i>
    <varray name="rec_basis" >
     <v>       0.14396680       0.00000000       0.00000000 </v>
     <v>       0.00000000       0.13640763       0.00000000 </v>
     <v>       0.00000000       0.00000000       0.11679798 </v>
    </varray>
   </crystal>
   <varray name="positions" >
    <v>       0.61960738       0.58828731       0.12235535 </v>
    <v>       0.11960738       0.91171269       0.62235535 </v>
    <v>       0.61960738       0.08828731       0.37764465 </v>
    <v>       0.11960738       0.41171269       0.87764465 </v>
    <v>       0.62224215       0.57760529       0.62506100 </v>
    <v>       0.12224215       0.42239471       0.37493900 </v>
    <v>       0.12224215       0.92239471       0.12506100 </v>
    <v>       0.62224215       0.07760529       0.87493900 </v>
    <v>       0.00275442       0.08127802       0.86702336 </v>
    <v>       0.00275442       0.58127802       0.63297664 </v>
    <v>       0.50275442       0.91872198       0.13297664 </v>
    <v>       0.50275442       0.41872198       0.36702336 </v>
    <v>       0.49160506       0.91597418       0.62125561 </v>
    <v>       0.99160506       0.08402582       0.37874439 </v>
    <v>       0.99160506       0.58402582       0.12125561 </v>
    <v>       0.49160506       0.41597418       0.87874439 </v>
   </varray>
  </structure>
  <varray name="forces" >
   <v>      -0.00574014      -0.00603608      -0.00388524 </v>
   <v>      -0.00574014       0.00603608      -0.00388524 </v>
   <v>      -0.00574014      -0.00603608       0.00388524 </v>
   <v>      -0.00574014       0.00603608       0.00388524 </v>
   <v>      -0.01453527       0.04675977      -0.00734837 </v>
   <v>      -0.01453527      -0.04675977       0.00734837 </v>
   <v>      -0.01453527      -0.04675977      -0.00734837 </v>
   <v>      -0.01453527       0.04675977       0.00734837 </v>
   <v>       0.01061416      -0.03676443       0.05027086 </v>
   <v>       0.01061416      -0.03676443      -0.05027086 </v>
   <v>       0.01061416       0.03676443      -0.05027086 </v>
   <v>       0.01061416       0.03676443       0.05027086 </v>
   <v>       0.00966125       0.00254558       0.00389441 </v>
   <v>       0.00966125      -0.00254558      -0.00389441 </v>
   <v>       0.00966125      -0.00254558       0.00389441 </v>
   <v>       0.00966125       0.00254558      -0.00389441 </v>
  </varray>
  <varray name="stress" >
   <v>      -0.01719066       0.00000000       0.00000000 </v>
   <v>       0.00000000       0.47232990       0.00000000 </v>
   <v>       0.00000000       0.00000000       0.10408667 </v>
  </varray>
  <energy>
   <i name="e_fr_energy">    -59.95262979 </i>
   <i name="e_wo_entrp">    -59.95262979 </i>
   <i name="e_0_energy">     -0.00000000 </i>
  </energy>
  <time name="totalsc">    1.41    1.41</time>
 </calculation>
 <calculation>
  <scstep>
   <time name="dav">    0.34    0.34</time>
   <time name="total">    0.52    0.52</time>
   <energy>
    <i name="alphaZ">     69.13784375 </i>
    <i name="ewald">  -1966.95624648 </i>
    <i name="hartreedc">   -368.20723229 </i>
    <i name="XCdc">   -241.17419996 </i>
    <i name="pawpsdc">   3846.39592352 </i>
    <i name="pawaedc">  -3478.98938206 </i>
    <i name="eentropy">     -0.00000000 </i>
    <i name="bandstr">   -213.52032942 </i>
    <i name="atom">   2293.35992167 </i>
    <i name="e_fr_energy">    -59.95370128 </i>
    <i name="e_wo_entrp">    -59.95370128 </i>
    <i name="e_0_energy">    -59.95370128 </i>
   </energy>
  </scstep>
  <scstep>
   <time name="dav">    0.40    0.40</time>
   <time name="total">    0.59    0.59</time>
   <energy>
    <i name="e_fr_energy">    -59.95388037 </i>
    <i name="e_wo_entrp">    -59.95388037 </i>
    <i name="e_0_energy">    -59.95388037 </i>
   </energy>
  </scstep>
  <scstep>
   <time name="dav">    0.23    0.23</time>
   <time name="total">    0.40    0.40</time>
   <energy>
    <i name="alphaZ">     69.13784375 </i>
    <i name="ewald">  -1966.95624648 </i>
    <i name="hartreedc">   -368.40252177 </i>
    <i name="XCdc">   -241.16922459 </i>
    <i name="pawpsdc">   3846.32604714 </i>
    <i name="pawaedc">  -3478.92131174 </i>
    <i name="eentropy">     -0.00000000 </i>
    <i name="bandstr">   -213.32835823 </i>
    <i name="atom">   2293.35992167 </i>
    <i name="e_fr_energy">    -59.95385026 </i>
    <i name="e_wo_entrp">    -59.95385026 </i>
    <i name="e_0_energy">    -59.95385026 </i>
   </energy>
  </scstep>
  <structure>
   <crystal>
    <varray name="basis" >
     <v>       6.94614580       0.00000000       0.00000000 </v>
     <v>       0.00000000       7.33438177       0.00000000 </v>
     <v>       0.00000000       0.00000000       8.56229216 </v>
    </varray>
    <i name="volume">    436.21184076 </i>
    <varray name="rec_basis" >
     <v>       0.14396473       0.00000000       0.00000000 </v>
     <v>       0.00000000       0.13634414       0.00000000 </v>
     <v>       0.00000000       0.00000000       0.11679116 </v>
    </varray>
   </crystal>
   <varray name="positions" >
    <v>       0.61956184       0.58824615       0.12232645 </v>
    <v>       0.11956184       0.91175385       0.62232645 </v>
    <v>       0.61956184       0.08824615       0.37767355 </v>
    <v>       0.11956184       0.41175385       0.87767355 </v>
    <v>       0.62210820       0.57802303       0.62500218 </v>
    <v>       0.12210820       0.42197697       0.37499782 </v>
    <v>       0.12210820       0.92197697       0.12500218 </v>
    <v>       0.62210820       0.07802303       0.87499782 </v>
    <v>       0.00285820       0.08100278       0.86736320 </v>
    <v>       0.00285820       0.58100278       0.63263680 </v>
    <v>       0.50285820       0.91899722       0.13263680 </v>
    <v>       0.50285820       0.41899722       0.36736320 </v>
    <v>       0.49168076       0.91598286       0.62126696 </v>
    <v>       0.99168076       0.08401714       0.37873304 </v>
    <v>       0.99168076       0.58401714       0.12126696 </v>
    <v>       0.49168076       0.41598286       0.87873304 </v>
   </varray>
  </structure>
  <varray name="forces" >
   <v>       0.00017821      -0.00261614      -0.00222694 </v>
   <v>       0.00017821       0.00261614      -0.00222694 </v>
   <v>       0.00017821      -0.00261614       0.00222694 </v>
   <v>       0.00017821       0.00261614       0.00222694 </v>
   <v>       0.00104137       0.02937138       0.00728529 </v>
   <v>       0.00104137      -0.02937138      -0.00728529 </v>
   <v>       0.00104137      -0.02937138       0.00728529 </v>
   <v>       0.00104137       0.02937138      -0.00728529 </v>
   <v>      -0.01303981      -0.01014035       0.01939695 </v>
   <v>      -0.01303981      -0.01014035      -0.01939695 </v>
   <v>      -0.01303981       0.01014035      -0.01939695 </v>
   <v>      -0.01303981       0.01014035       0.01939695 </v>
   <v>       0.01182023       0.01624297       0.00534922 </v>
   <v>       0.01182023      -0.01624297      -0.00534922 </v>
   <v>       0.01182023      -0.01624297       0.00534922 </v>
   <v>       0.01182023       0.01624297      -0.00534922 </v>
  </varray>
  <varray name="stress" >
   <v>      -0.06408048       0.00000000       0.00000000 </v>
   <v>       0.00000000       0.76097357       0.00000000 </v>
   <v>       0.00000000       0.00000000       0.72666431 </v>
  </varray>
  <energy>
   <i name="e_fr_energy">    -59.95385026 </i>
   <i name="e_wo_entrp">    -59.95385026 </i>
   <i name="e_0_energy">     -0.00000000 </i>
  </energy>
  <time name="totalsc">    2.15    2.16</time>
  <eigenvalues>
   <array>
    <dimension dim="1">band</dimension>
    <dimension dim="2">kpoint</dimension>
    <dimension dim="3">spin</dimension>
    <field>eigene</field>
    <field>occ</field>
    <set>
     <set comment="spin 1">
      <set comment="kpoint 1">
       <r>  -11.1645    1.0000 </r>
       <r>  -10.6601    1.0000 </r>
       <r>  -10.6221    1.0000 </r>
       <r>  -10.4174    1.0000 </r>
       <r>  -10.3684    1.0000 </r>
       <r>  -10.2969    1.0000 </r>
       <r>  -10.2794    1.0000 </r>
       <r>  -10.2621    1.0000 </r>
       <r>   -4.1437    1.0000 </r>
       <r>   -3.7568    1.0000 </r>
       <r>   -3.4920    1.0000 </r>
       <r>   -2.7721    1.0000 </r>
       <r>   -1.8401    1.0000 </r>
[...]
        <r>  0.0029  0.0105  0.0001 </r>
       </set>
       <set comment="band 17">
        <r>  0.0015  0.0033  0.0000 </r>
        <r>  0.0017  0.0038  0.0000 </r>
        <r>  0.0012  0.0020  0.0000 </r>
        <r>  0.0013  0.0029  0.0000 </r>
        <r>  0.0023  0.0360  0.0034 </r>
        <r>  0.0033  0.0624  0.0028 </r>
        <r>  0.0011  0.0347  0.0025 </r>
        <r>  0.0046  0.0230  0.0028 </r>
        <r>  0.0026  0.0386  0.0001 </r>
        <r>  0.0000  0.0589  0.0002 </r>
        <r>  0.0003  0.0431  0.0003 </r>
        <r>  0.0004  0.0459  0.0002 </r>
        <r>  0.0004  0.0408  0.0001 </r>
        <r>  0.0024  0.0661  0.0002 </r>
        <r>  0.0003  0.0479  0.0002 </r>
        <r>  0.0011  0.0348  0.0002 </r>
       </set>
       <set comment="band 18">
        <r>  0.0010  0.0010  0.0000 </r>
        <r>  0.0000  0.0011  0.0000 </r>
        <r>  0.0060  0.0016  0.0000 </r>
        <r>  0.0007  0.0021  0.0000 </r>
        <r>  0.0010  0.0343  0.0039 </r>
        <r>  0.0020  0.0257  0.0023 </r>
        <r>  0.0004  0.0655  0.0045 </r>
        <r>  0.0021  0.0570  0.0054 </r>
        <r>  0.0002  0.0590  0.0005 </r>
        <r>  0.0010  0.0495  0.0002 </r>
        <r>  0.0000  0.0554  0.0002 </r>
        <r>  0.0015  0.0020  0.0002 </r>
        <r>  0.0001  0.0471  0.0003 </r>
        <r>  0.0004  0.0977  0.0003 </r>
        <r>  0.0015  0.0293  0.0002 </r>
        <r>  0.0002  0.0600  0.0004 </r>
       </set>
       <set comment="band 19">
        <r>  0.0035  0.0019  0.0000 </r>
        <r>  0.0032  0.0019  0.0000 </r>
        <r>  0.0023  0.0009  0.0000 </r>
        <r>  0.0004  0.0008  0.0000 </r>
        <r>  0.0039  0.0307  0.0059 </r>
        <r>  0.0008  0.0557  0.0064 </r>
        <r>  0.0066  0.0291  0.0044 </r>
        <r>  0.0005  0.0447  0.0037 </r>
        <r>  0.0003  0.0194  0.0003 </r>
        <r>  0.0006  0.0631  0.0003 </r>
        <r>  0.0008  0.0900  0.0003 </r>
        <r>  0.0003  0.0700  0.0004 </r>
        <r>  0.0002  0.0541  0.0001 </r>
        <r>  0.0009  0.0333  0.0003 </r>
        <r>  0.0004  0.0491  0.0002 </r>
        <r>  0.0002  0.0308  0.0001 </r>
       </set>
       <set comment="band 20">
        <r>  0.0051  0.0017  0.0000 </r>
        <r>  0.0014  0.0017  0.0000 </r>
        <r>  0.0026  0.0023  0.0000 </r>
        <r>  0.0089  0.0006  0.0000 </r>
        <r>  0.0002  0.0408  0.0073 </r>
        <r>  0.0013  0.0158  0.0045 </r>
        <r>  0.0000  0.0267  0.0098 </r>
        <r>  0.0029  0.0207  0.0027 </r>
        <r>  0.0002  0.0585  0.0002 </r>
        <r>  0.0011  0.0182  0.0002 </r>
        <r>  0.0002  0.0365  0.0001 </r>
        <r>  0.0015  0.0868  0.0001 </r>
        <r>  0.0016  0.0264  0.0002 </r>
        <r>  0.0008  0.0367  0.0001 </r>
        <r>  0.0003  0.0657  0.0002 </r>
        <r>  0.0000  0.0846  0.0002 </r>
       </set>
       <set comment="band 21">
        <r>  0.0018  0.0050  0.0000 </r>
        <r>  0.0017  0.0014  0.0000 </r>
        <r>  0.0000  0.0026  0.0000 </r>
        <r>  0.0038  0.0025  0.0000 </r>
        <r>  0.0027  0.0405  0.0037 </r>
        <r>  0.0013  0.0296  0.0032 </r>
        <r>  0.0003  0.0387  0.0053 </r>
        <r>  0.0002  0.0311  0.0057 </r>
        <r>  0.0005  0.0845  0.0002 </r>
        <r>  0.0003  0.0367  0.0003 </r>
        <r>  0.0001  0.0501  0.0003 </r>
        <r>  0.0011  0.0796  0.0003 </r>
        <r>  0.0002  0.0857  0.0005 </r>
        <r>  0.0003  0.0112  0.0001 </r>
        <r>  0.0000  0.0283  0.0003 </r>
        <r>  0.0005  0.0486  0.0002 </r>
       </set>
       <set comment="band 22">
        <r>  0.0008  0.0010  0.0000 </r>
        <r>  0.0014  0.0020  0.0000 </r>
        <r>  0.0034  0.0043  0.0000 </r>
        <r>  0.0025  0.0030  0.0000 </r>
        <r>  0.0007  0.0196  0.0031 </r>
        <r>  0.0005  0.0225  0.0076 </r>
        <r>  0.0008  0.0332  0.0063 </r>
        <r>  0.0015  0.0551  0.0041 </r>
        <r>  0.0003  0.0566  0.0002 </r>
        <r>  0.0002  0.0377  0.0001 </r>
        <r>  0.0002  0.0248  0.0002 </r>
        <r>  0.0002  0.0437  0.0001 </r>
        <r>  0.0017  0.1099  0.0003 </r>
        <r>  0.0000  0.0403  0.0003 </r>
        <r>  0.0002  0.0816  0.0003 </r>
        <r>  0.0001  0.0413  0.0004 </r>
       </set>
       <set comment="band 23">
        <r>  0.0014  0.0011  0.0000 </r>
        <r>  0.0083  0.0012  0.0000 </r>
        <r>  0.0030  0.0022  0.0000 </r>
        <r>  0.0017  0.0007  0.0000 </r>
        <r>  0.0019  0.0084  0.0027 </r>
        <r>  0.0007  0.0399  0.0073 </r>
        <r>  0.0003  0.0388  0.0074 </r>
        <r>  0.0001  0.0405  0.0080 </r>
        <r>  0.0001  0.0911  0.0003 </r>
        <r>  0.0001  0.0750  0.0003 </r>
        <r>  0.0003  0.0877  0.0002 </r>
        <r>  0.0003  0.0167  0.0001 </r>
        <r>  0.0004  0.0182  0.0002 </r>
        <r>  0.0001  0.0816  0.0003 </r>
        <r>  0.0001  0.0368  0.0002 </r>
        <r>  0.0003  0.0395  0.0001 </r>
       </set>
       <set comment="band 24">
        <r>  0.0051  0.0020  0.0000 </r>
        <r>  0.0036  0.0012  0.0000 </r>
        <r>  0.0034  0.0006  0.0000 </r>
        <r>  0.0035  0.0027  0.0000 </r>
        <r>  0.0008  0.0645  0.0093 </r>
        <r>  0.0007  0.0216  0.0071 </r>
        <r>  0.0001  0.0106  0.0028 </r>
        <r>  0.0002  0.0177  0.0058 </r>
        <r>  0.0002  0.0190  0.0001 </r>
        <r>  0.0004  0.1353  0.0003 </r>
        <r>  0.0005  0.0349  0.0001 </r>
        <r>  0.0003  0.0816  0.0005 </r>
        <r>  0.0001  0.0310  0.0003 </r>
        <r>  0.0000  0.0283  0.0001 </r>
        <r>  0.0002  0.0484  0.0001 </r>
        <r>  0.0003  0.0723  0.0002 </r>
       </set>
       <set comment="band 25">
        <r>  0.0010  0.0059  0.0000 </r>
        <r>  0.0006  0.0045  0.0000 </r>
        <r>  0.0012  0.0049  0.0000 </r>
        <r>  0.0001  0.0043  0.0000 </r>
        <r>  0.0003  0.0355  0.0077 </r>
        <r>  0.0002  0.0150  0.0023 </r>
        <r>  0.0008  0.0156  0.0052 </r>
        <r>  0.0003  0.0216  0.0089 </r>
        <r>  0.0002  0.0405  0.0002 </r>
        <r>  0.0003  0.0468  0.0002 </r>
        <r>  0.0003  0.1140  0.0001 </r>
        <r>  0.0010  0.0734  0.0001 </r>
        <r>  0.0007  0.0480  0.0002 </r>
        <r>  0.0002  0.0412  0.0001 </r>
        <r>  0.0008  0.0422  0.0001 </r>
        <r>  0.0003  0.0515  0.0004 </r>
       </set>
       <set comment="band 26">
        <r>  0.0017  0.0020  0.0000 </r>
        <r>  0.0008  0.0070  0.0000 </r>
        <r>  0.0007  0.0041  0.0000 </r>
        <r>  0.0001  0.0068  0.0000 </r>
        <r>  0.0007  0.0129  0.0071 </r>
        <r>  0.0002  0.0238  0.0064 </r>
        <r>  0.0001  0.0284  0.0042 </r>
        <r>  0.0011  0.0110  0.0047 </r>
        <r>  0.0006  0.0635  0.0003 </r>
        <r>  0.0005  0.0532  0.0001 </r>
        <r>  0.0010  0.0296  0.0001 </r>
        <r>  0.0002  0.0442  0.0001 </r>
        <r>  0.0003  0.0419  0.0001 </r>
        <r>  0.0007  0.0831  0.0003 </r>
        <r>  0.0006  0.0916  0.0002 </r>
        <r>  0.0003  0.0548  0.0001 </r>
       </set>
       <set comment="band 27">
        <r>  0.0004  0.0018  0.0000 </r>
        <r>  0.0030  0.0039  0.0000 </r>
        <r>  0.0001  0.0054  0.0000 </r>
        <r>  0.0022  0.0065  0.0000 </r>
        <r>  0.0000  0.0122  0.0050 </r>
        <r>  0.0002  0.0195  0.0060 </r>
        <r>  0.0002  0.0236  0.0079 </r>
        <r>  0.0003  0.0199  0.0075 </r>
        <r>  0.0002  0.0830  0.0002 </r>
        <r>  0.0004  0.0776  0.0002 </r>
        <r>  0.0006  0.0496  0.0003 </r>
        <r>  0.0005  0.0441  0.0002 </r>
        <r>  0.0004  0.0614  0.0002 </r>
        <r>  0.0004  0.0871  0.0001 </r>
        <r>  0.0000  0.0495  0.0001 </r>
        <r>  0.0002  0.0289  0.0001 </r>
       </set>
       <set comment="band 28">
        <r>  0.0008  0.0070  0.0000 </r>
        <r>  0.0001  0.0092  0.0000 </r>
        <r>  0.0015  0.0029  0.0000 </r>
        <r>  0.0013  0.0049  0.0000 </r>
        <r>  0.0002  0.0087  0.0048 </r>
        <r>  0.0004  0.0167  0.0070 </r>
        <r>  0.0003  0.0026  0.0027 </r>
        <r>  0.0001  0.0143  0.0059 </r>
        <r>  0.0003  0.0930  0.0002 </r>
        <r>  0.0001  0.0457  0.0003 </r>
        <r>  0.0000  0.0207  0.0001 </r>
        <r>  0.0004  0.0494  0.0002 </r>
        <r>  0.0000  0.0434  0.0001 </r>
        <r>  0.0000  0.0831  0.0001 </r>
        <r>  0.0002  0.0470  0.0000 </r>
        <r>  0.0001  0.1031  0.0001 </r>
       </set>
       <set comment="band 29">
        <r>  0.0004  0.0084  0.0000 </r>
        <r>  0.0002  0.0042  0.0000 </r>
        <r>  0.0002  0.0060  0.0000 </r>
        <r>  0.0010  0.0050  0.0000 </r>
        <r>  0.0002  0.0103  0.0035 </r>
        <r>  0.0008  0.0085  0.0029 </r>
        <r>  0.0000  0.0199  0.0052 </r>
        <r>  0.0001  0.0094  0.0042 </r>
        <r>  0.0004  0.0631  0.0002 </r>
        <r>  0.0008  0.0774  0.0001 </r>
        <r>  0.0001  0.1088  0.0001 </r>
        <r>  0.0001  0.0512  0.0001 </r>
        <r>  0.0000  0.0476  0.0001 </r>
        <r>  0.0003  0.0283  0.0001 </r>
        <r>  0.0007  0.0360  0.0002 </r>
        <r>  0.0004  0.0757  0.0002 </r>
       </set>
       <set comment="band 30">
        <r>  0.0002  0.0055  0.0000 </r>
        <r>  0.0002  0.0072  0.0000 </r>
        <r>  0.0007  0.0040  0.0000 </r>
        <r>  0.0002  0.0096  0.0000 </r>
        <r>  0.0005  0.0049  0.0057 </r>
        <r>  0.0000  0.0061  0.0016 </r>
        <r>  0.0013  0.0054  0.0046 </r>
        <r>  0.0001  0.0054  0.0055 </r>
        <r>  0.0002  0.0639  0.0001 </r>
        <r>  0.0000  0.0403  0.0002 </r>
        <r>  0.0002  0.0253  0.0001 </r>
        <r>  0.0001  0.0200  0.0000 </r>
        <r>  0.0000  0.1239  0.0001 </r>
        <r>  0.0005  0.0383  0.0001 </r>
        <r>  0.0002  0.0657  0.0001 </r>
        <r>  0.0001  0.1227  0.0001 </r>
       </set>
       <set comment="band 31">
        <r>  0.0002  0.0097  0.0000 </r>
        <r>  0.0001  0.0023  0.0000 </r>
        <r>  0.0003  0.0107  0.0000 </r>
        <r>  0.0002  0.0021  0.0000 </r>
        <r>  0.0006  0.0060  0.0059 </r>
        <r>  0.0004  0.0081  0.0057 </r>
        <r>  0.0002  0.0035  0.0058 </r>
        <r>  0.0008  0.0095  0.0037 </r>
        <r>  0.0002  0.0202  0.0001 </r>
        <r>  0.0000  0.0128  0.0000 </r>
        <r>  0.0002  0.1097  0.0003 </r>
        <r>  0.0001  0.1274  0.0002 </r>
        <r>  0.0002  0.0938  0.0001 </r>
        <r>  0.0002  0.0259  0.0001 </r>
        <r>  0.0000  0.0822  0.0001 </r>
        <r>  0.0001  0.0338  0.0002 </r>
       </set>
       <set comment="band 32">
        <r>  0.0001  0.0042  0.0000 </r>
        <r>  0.0002  0.0088  0.0000 </r>
        <r>  0.0000  0.0058  0.0000 </r>
        <r>  0.0000  0.0073  0.0000 </r>
        <r>  0.0001  0.0061  0.0047 </r>
        <r>  0.0003  0.0052  0.0076 </r>
        <r>  0.0007  0.0052  0.0041 </r>
        <r>  0.0001  0.0023  0.0035 </r>
        <r>  0.0000  0.0531  0.0002 </r>
        <r>  0.0001  0.0948  0.0001 </r>
        <r>  0.0000  0.0330  0.0001 </r>
        <r>  0.0001  0.0589  0.0001 </r>
        <r>  0.0001  0.0336  0.0001 </r>
        <r>  0.0000  0.1296  0.0001 </r>
        <r>  0.0000  0.0799  0.0002 </r>
        <r>  0.0000  0.0269  0.0001 </r>
       </set>
       <set comment="band 33">
        <r>  0.0003  0.0038  0.0000 </r>
        <r>  0.0004  0.0029  0.0000 </r>
        <r>  0.0003  0.0051  0.0000 </r>
        <r>  0.0000  0.0026  0.0000 </r>
        <r>  0.1186  0.0104  0.0024 </r>
        <r>  0.0316  0.0137  0.0043 </r>
        <r>  0.0052  0.0106  0.0045 </r>
        <r>  0.1000  0.0095  0.0023 </r>
        <r>  0.0061  0.0183  0.0015 </r>
        <r>  0.0070  0.0274  0.0023 </r>
        <r>  0.0012  0.0186  0.0025 </r>
        <r>  0.0140  0.0414  0.0025 </r>
        <r>  0.0140  0.0402  0.0025 </r>
        <r>  0.0012  0.0105  0.0012 </r>
        <r>  0.0006  0.0128  0.0013 </r>
        <r>  0.0029  0.0554  0.0042 </r>
       </set>
       <set comment="band 34">
        <r>  0.0002  0.0035  0.0000 </r>
        <r>  0.0000  0.0026  0.0000 </r>
        <r>  0.0003  0.0017  0.0000 </r>
        <r>  0.0001  0.0015  0.0000 </r>
        <r>  0.0237  0.0088  0.0023 </r>
        <r>  0.0445  0.0043  0.0030 </r>
        <r>  0.1178  0.0144  0.0017 </r>
        <r>  0.0719  0.0092  0.0034 </r>
        <r>  0.0091  0.0501  0.0027 </r>
        <r>  0.0047  0.0265  0.0010 </r>
        <r>  0.0126  0.0452  0.0023 </r>
        <r>  0.0027  0.0168  0.0007 </r>
        <r>  0.0008  0.0278  0.0016 </r>
        <r>  0.0089  0.0464  0.0021 </r>
        <r>  0.0077  0.0433  0.0022 </r>
        <r>  0.0037  0.0176  0.0014 </r>
       </set>
       <set comment="band 35">
        <r>  0.0007  0.0017  0.0000 </r>
        <r>  0.0001  0.0020  0.0000 </r>
        <r>  0.0002  0.0026  0.0000 </r>
        <r>  0.0001  0.0023  0.0000 </r>
        <r>  0.0416  0.0182  0.0067 </r>
        <r>  0.1419  0.0172  0.0036 </r>
        <r>  0.0467  0.0071  0.0045 </r>
        <r>  0.0194  0.0147  0.0043 </r>
        <r>  0.0003  0.0230  0.0021 </r>
        <r>  0.0074  0.0320  0.0034 </r>
        <r>  0.0054  0.0220  0.0015 </r>
        <r>  0.0047  0.0500  0.0036 </r>
        <r>  0.0032  0.0196  0.0017 </r>
        <r>  0.0023  0.0480  0.0033 </r>
        <r>  0.0089  0.0405  0.0026 </r>
        <r>  0.0065  0.0154  0.0013 </r>
       </set>
       <set comment="band 36">
        <r>  0.0005  0.0010  0.0000 </r>
        <r>  0.0001  0.0034  0.0000 </r>
        <r>  0.0002  0.0015  0.0000 </r>
        <r>  0.0008  0.0040  0.0000 </r>
        <r>  0.0734  0.0050  0.0029 </r>
        <r>  0.0402  0.0108  0.0062 </r>
        <r>  0.0882  0.0081  0.0061 </r>
        <r>  0.0607  0.0084  0.0050 </r>
        <r>  0.0071  0.0264  0.0031 </r>
        <r>  0.0023  0.0401  0.0033 </r>
        <r>  0.0013  0.0425  0.0029 </r>
        <r>  0.0033  0.0152  0.0015 </r>
        <r>  0.0006  0.0328  0.0031 </r>
        <r>  0.0079  0.0283  0.0025 </r>
        <r>  0.0016  0.0426  0.0030 </r>
        <r>  0.0053  0.0345  0.0021 </r>
       </set>
       <set comment="band 37">
        <r>  0.0036  0.0017  0.0000 </r>
        <r>  0.0008  0.0039  0.0000 </r>
        <r>  0.0062  0.0014  0.0000 </r>
        <r>  0.0000  0.0044  0.0000 </r>
        <r>  0.0000  0.0513  0.0075 </r>
        <r>  0.0042  0.0835  0.0118 </r>
        <r>  0.0074  0.0913  0.0090 </r>
        <r>  0.0022  0.0493  0.0077 </r>
        <r>  0.0000  0.0166  0.0056 </r>
        <r>  0.0105  0.0110  0.0047 </r>
        <r>  0.0207  0.0103  0.0019 </r>
        <r>  0.0053  0.0111  0.0041 </r>
        <r>  0.0031  0.0065  0.0028 </r>
        <r>  0.0053  0.0053  0.0054 </r>
        <r>  0.0065  0.0031  0.0056 </r>
        <r>  0.0020  0.0087  0.0030 </r>
       </set>
       <set comment="band 38">
        <r>  0.0013  0.0057  0.0000 </r>
        <r>  0.0021  0.0034  0.0000 </r>
        <r>  0.0008  0.0033  0.0000 </r>
        <r>  0.0022  0.0023  0.0000 </r>
        <r>  0.0016  0.0636  0.0127 </r>
        <r>  0.0054  0.0417  0.0099 </r>
        <r>  0.0031  0.0551  0.0131 </r>
        <r>  0.0157  0.0884  0.0101 </r>
        <r>  0.0176  0.0231  0.0010 </r>
        <r>  0.0060  0.0029  0.0022 </r>
        <r>  0.0006  0.0112  0.0069 </r>
        <r>  0.0014  0.0111  0.0048 </r>
        <r>  0.0055  0.0105  0.0069 </r>
        <r>  0.0021  0.0096  0.0039 </r>
        <r>  0.0042  0.0069  0.0046 </r>
        <r>  0.0089  0.0154  0.0044 </r>
       </set>
       <set comment="band 39">
        <r>  0.0020  0.0025  0.0000 </r>
        <r>  0.0025  0.0033  0.0000 </r>
        <r>  0.0018  0.0010  0.0000 </r>
        <r>  0.0025  0.0042  0.0000 </r>
        <r>  0.0029  0.0716  0.0172 </r>
        <r>  0.0036  0.0602  0.0072 </r>
        <r>  0.0119  0.0558  0.0098 </r>
        <r>  0.0021  0.0468  0.0123 </r>
        <r>  0.0004  0.0118  0.0042 </r>
        <r>  0.0050  0.0069  0.0049 </r>
        <r>  0.0004  0.0095  0.0039 </r>
        <r>  0.0039  0.0146  0.0033 </r>
        <r>  0.0122  0.0172  0.0034 </r>
        <r>  0.0003  0.0138  0.0064 </r>
        <r>  0.0108  0.0078  0.0038 </r>
        <r>  0.0042  0.0088  0.0063 </r>
       </set>
       <set comment="band 40">
        <r>  0.0040  0.0034  0.0000 </r>
        <r>  0.0003  0.0042  0.0000 </r>
        <r>  0.0012  0.0054  0.0000 </r>
        <r>  0.0015  0.0041  0.0000 </r>
        <r>  0.0095  0.0662  0.0057 </r>
        <r>  0.0102  0.0684  0.0135 </r>
        <r>  0.0004  0.0397  0.0070 </r>
        <r>  0.0044  0.0498  0.0105 </r>
        <r>  0.0028  0.0167  0.0051 </r>
        <r>  0.0010  0.0290  0.0026 </r>
        <r>  0.0001  0.0142  0.0037 </r>
        <r>  0.0004  0.0188  0.0093 </r>
        <r>  0.0005  0.0057  0.0051 </r>
        <r>  0.0150  0.0059  0.0015 </r>
        <r>  0.0024  0.0098  0.0053 </r>
        <r>  0.0135  0.0126  0.0034 </r>
       </set>
       <set comment="band 41">
        <r>  0.0006  0.0018  0.0000 </r>
        <r>  0.0007  0.0055  0.0000 </r>
        <r>  0.0002  0.0090  0.0000 </r>
        <r>  0.0016  0.0041  0.0000 </r>
        <r>  0.0029  0.0492  0.0147 </r>
        <r>  0.0004  0.0366  0.0041 </r>
        <r>  0.0018  0.0251  0.0039 </r>
        <r>  0.0016  0.1159  0.0250 </r>
        <r>  0.0044  0.0132  0.0055 </r>
        <r>  0.0035  0.0094  0.0039 </r>
        <r>  0.0015  0.0238  0.0061 </r>
        <r>  0.0035  0.0059  0.0041 </r>
        <r>  0.0060  0.0265  0.0077 </r>
        <r>  0.0027  0.0038  0.0033 </r>
        <r>  0.0039  0.0089  0.0021 </r>
        <r>  0.0078  0.0120  0.0052 </r>
       </set>
       <set comment="band 42">
        <r>  0.0005  0.0042  0.0000 </r>
        <r>  0.0005  0.0013  0.0000 </r>
        <r>  0.0006  0.0061  0.0000 </r>
        <r>  0.0002  0.0022  0.0000 </r>
        <r>  0.0106  0.0636  0.0102 </r>
        <r>  0.0079  0.0600  0.0236 </r>
        <r>  0.0058  0.0691  0.0167 </r>
        <r>  0.0103  0.0220  0.0069 </r>
        <r>  0.0032  0.0080  0.0032 </r>
        <r>  0.0012  0.0332  0.0065 </r>
        <r>  0.0012  0.0193  0.0048 </r>
        <r>  0.0091  0.0206  0.0036 </r>
        <r>  0.0011  0.0094  0.0042 </r>
        <r>  0.0016  0.0122  0.0073 </r>
        <r>  0.0006  0.0216  0.0079 </r>
        <r>  0.0006  0.0130  0.0039 </r>
       </set>
      </set>
     </set>
    </set>
   </array>
  </projected>
 </calculation>
 <structure name="finalpos" >
  <crystal>
   <varray name="basis" >
    <v>       6.94614580       0.00000000       0.00000000 </v>
    <v>       0.00000000       7.33438177       0.00000000 </v>
    <v>       0.00000000       0.00000000       8.56229216 </v>
   </varray>
   <i name="volume">    436.21184076 </i>
   <varray name="rec_basis" >
    <v>       0.14396473       0.00000000       0.00000000 </v>
    <v>       0.00000000       0.13634414       0.00000000 </v>
    <v>       0.00000000       0.00000000       0.11679116 </v>
   </varray>
  </crystal>
  <varray name="positions" >
   <v>       0.61956184       0.58824615       0.12232645 </v>
   <v>       0.11956184       0.91175385       0.62232645 </v>
   <v>       0.61956184       0.08824615       0.37767355 </v>
   <v>       0.11956184       0.41175385       0.87767355 </v>
   <v>       0.62210820       0.57802303       0.62500218 </v>
   <v>       0.12210820       0.42197697       0.37499782 </v>
   <v>       0.12210820       0.92197697       0.12500218 </v>
   <v>       0.62210820       0.07802303       0.87499782 </v>
   <v>       0.00285820       0.08100278       0.86736320 </v>
   <v>       0.00285820       0.58100278       0.63263680 </v>
   <v>       0.50285820       0.91899722       0.13263680 </v>
   <v>       0.50285820       0.41899722       0.36736320 </v>
   <v>       0.49168076       0.91598286       0.62126696 </v>
   <v>       0.99168076       0.08401714       0.37873304 </v>
   <v>       0.99168076       0.58401714       0.12126696 </v>
   <v>       0.49168076       0.41598286       0.87873304 </v>
  </varray>
 </structure>
</modeling>
