CIS                                     
           1
     6.954631    0.000000    0.000000
     0.000000    7.270598    0.000000
     0.000000    0.000000    8.783002
   Li   In   Se
   4   4   8
Direct configuration=     1
   0.61885975  0.58578632  0.12260302
   0.11885975  0.91421368  0.62260302
   0.61885975  0.08578632  0.37739698
   0.11885975  0.41421368  0.87739698
   0.62243813  0.57359716  0.62641813
   0.12243813  0.42640284  0.37358187
   0.12243813  0.92640284  0.12641813
   0.62243813  0.07359716  0.87358187
   0.99966077  0.07400380  0.87043818
   0.99966077  0.57400380  0.62956182
   0.49966077  0.92599620  0.12956182
   0.49966077  0.42599620  0.37043818
   0.49525036  0.91462603  0.62373564
   0.99525036  0.08537397  0.37626436
   0.99525036  0.58537397  0.12373564
   0.49525036  0.41462603  0.87626436
CIS                                     
           1
     6.957770    0.000000    0.000000
     0.000000    7.271097    0.000000
     0.000000    0.000000    8.773163
   Li   In   Se
   4   4   8
Direct configuration=     2
   0.61885932  0.58584611  0.12259853
   0.11885932  0.91415389  0.62259853
   0.61885932  0.08584611  0.37740147
   0.11885932  0.41415389  0.87740147
   0.62230284  0.57359361  0.62638934
   0.12230284  0.42640639  0.37361066
   0.12230284  0.92640639  0.12638934
   0.62230284  0.07359361  0.87361066
   0.99990215  0.07418282  0.87041816
   0.99990215  0.57418282  0.62958184
   0.49990215  0.92581718  0.12958184
   0.49990215  0.42581718  0.37041816
   0.49514470  0.91474345  0.62374259
   0.99514470  0.08525655  0.37625741
   0.99514470  0.58525655  0.12374259
   0.49514470  0.41474345  0.87625741
CIS                                     
           1
     6.967185    0.000000    0.000000
     0.000000    7.272596    0.000000
     0.000000    0.000000    8.743644
   Li   In   Se
   4   4   8
Direct configuration=     3
   0.61885803  0.58602547  0.12258504
   0.11885803  0.91397453  0.62258504
   0.61885803  0.08602547  0.37741496
   0.11885803  0.41397453  0.87741496
   0.62189714  0.57358297  0.62630287
   0.12189714  0.42641703  0.37369713
   0.12189714  0.92641703  0.12630287
   0.62189714  0.07358297  0.87369713
   0.00062596  0.07471987  0.87035806
   0.00062596  0.57471987  0.62964194
   0.50062596  0.92528013  0.12964194
   0.50062596  0.42528013  0.37035806
   0.49482787  0.91509568  0.62376346
   0.99482787  0.08490432  0.37623654
   0.99482787  0.58490432  0.12376346
   0.49482787  0.41509568  0.87623654
CIS                                     
           1
     6.986016    0.000000    0.000000
     0.000000    7.275593    0.000000
     0.000000    0.000000    8.684606
   Li   In   Se
   4   4   8
Direct configuration=     4
   0.61885546  0.58638411  0.12255798
   0.11885546  0.91361589  0.62255798
   0.61885546  0.08638411  0.37744202
   0.11885546  0.41361589  0.87744202
   0.62108685  0.57356167  0.62612935
   0.12108685  0.42643833  0.37387065
   0.12108685  0.92643833  0.12612935
   0.62108685  0.07356167  0.87387065
   0.00207163  0.07579375  0.87023746
   0.00207163  0.57579375  0.62976254
   0.50207163  0.92420625  0.12976254
   0.50207163  0.42420625  0.37023746
   0.49419507  0.91579999  0.62380534
   0.99419507  0.08420001  0.37619466
   0.99419507  0.58420001  0.12380534
   0.49419507  0.41579999  0.87619466
CIS                                     
           1
     6.976875    0.000000    0.000000
     0.000000    7.274138    0.000000
     0.000000    0.000000    8.713264
   Li   In   Se
   4   4   8
Direct configuration=     5
   0.61885670  0.58621009  0.12257120
   0.11885670  0.91378991  0.62257120
   0.61885670  0.08621009  0.37742880
   0.11885670  0.41378991  0.87742880
   0.62147912  0.57357201  0.62621416
   0.12147912  0.42642799  0.37378584
   0.12147912  0.92642799  0.12621416
   0.62147912  0.07357201  0.87378584
   0.00137176  0.07527268  0.87029640
   0.00137176  0.57527268  0.62970360
   0.50137176  0.92472732  0.12970360
   0.50137176  0.42472732  0.37029640
   0.49450142  0.91545824  0.62378487
   0.99450142  0.08454176  0.37621513
   0.99450142  0.58454176  0.12378487
   0.49450142  0.41545824  0.87621513
CIS                                     
           1
     6.973021    0.000000    0.000000
     0.000000    7.280152    0.000000
     0.000000    0.000000    8.699528
   Li   In   Se
   4   4   8
Direct configuration=     6
   0.61891877  0.58639067  0.12255621
   0.11891877  0.91360933  0.62255621
   0.61891877  0.08639067  0.37744379
   0.11891877  0.41360933  0.87744379
   0.62158783  0.57384374  0.62612609
   0.12158783  0.42615626  0.37387391
   0.12158783  0.92615626  0.12612609
   0.62158783  0.07384374  0.87387391
   0.00146519  0.07579228  0.87000493
   0.00146519  0.57579228  0.62999507
   0.50146519  0.92420772  0.12999507
   0.50146519  0.42420772  0.37000493
   0.49423721  0.91555200  0.62358774
   0.99423721  0.08444800  0.37641226
   0.99423721  0.58444800  0.12358774
   0.49423721  0.41555200  0.87641226
CIS                                     
           1
     6.961457    0.000000    0.000000
     0.000000    7.298192    0.000000
     0.000000    0.000000    8.658319
   Li   In   Se
   4   4   8
Direct configuration=     7
   0.61910506  0.58693197  0.12251117
   0.11910506  0.91306803  0.62251117
   0.61910506  0.08693197  0.37748883
   0.11910506  0.41306803  0.87748883
   0.62191412  0.57465826  0.62586147
   0.12191412  0.42534174  0.37413853
   0.12191412  0.92534174  0.12586147
   0.62191412  0.07465826  0.87413853
   0.00174566  0.07734981  0.86912914
   0.00174566  0.57734981  0.63087086
   0.50174566  0.92265019  0.13087086
   0.50174566  0.42265019  0.36912914
   0.49344416  0.91583305  0.62299540
   0.99344416  0.08416695  0.37700460
   0.99344416  0.58416695  0.12299540
   0.49344416  0.41583305  0.87700460
CIS                                     
           1
     6.938331    0.000000    0.000000
     0.000000    7.334272    0.000000
     0.000000    0.000000    8.575902
   Li   In   Se
   4   4   8
Direct configuration=     8
   0.61947828  0.58801189  0.12242066
   0.11947828  0.91198811  0.62242066
   0.61947828  0.08801189  0.37757934
   0.11947828  0.41198811  0.87757934
   0.62256780  0.57628327  0.62532972
   0.12256780  0.42371673  0.37467028
   0.12256780  0.92371673  0.12532972
   0.62256780  0.07628327  0.87467028
   0.00230752  0.08045717  0.86736922
   0.00230752  0.58045717  0.63263078
   0.50230752  0.91954283  0.13263078
   0.50230752  0.41954283  0.36736922
   0.49185541  0.91639378  0.62180508
   0.99185541  0.08360622  0.37819492
   0.99185541  0.58360622  0.12180508
   0.49185541  0.41639378  0.87819492
CIS                                     
           1
     6.946272    0.000000    0.000000
     0.000000    7.330871    0.000000
     0.000000    0.000000    8.561378
   Li   In   Se
   4   4   8
Direct configuration=     9
   0.61961116  0.58829540  0.12235343
   0.11961116  0.91170460  0.62235343
   0.61961116  0.08829540  0.37764657
   0.11961116  0.41170460  0.87764657
   0.62223260  0.57764409  0.62505310
   0.12223260  0.42235591  0.37494690
   0.12223260  0.92235591  0.12505310
   0.62223260  0.07764409  0.87494690
   0.00276751  0.08130211  0.86701320
   0.00276751  0.58130211  0.63298680
   0.50276751  0.91869789  0.13298680
   0.50276751  0.41869789  0.36701320
   0.49159772  0.91596187  0.62123946
   0.99159772  0.08403813  0.37876054
   0.99159772  0.58403813  0.12123946
   0.49159772  0.41596187  0.87876054
CIS                                     
           1
     6.946046    0.000000    0.000000
     0.000000    7.330968    0.000000
     0.000000    0.000000    8.561792
   Li   In   Se
   4   4   8
Direct configuration=    10
   0.61960738  0.58828731  0.12235535
   0.11960738  0.91171269  0.62235535
   0.61960738  0.08828731  0.37764465
   0.11960738  0.41171269  0.87764465
   0.62224215  0.57760529  0.62506100
   0.12224215  0.42239471  0.37493900
   0.12224215  0.92239471  0.12506100
   0.62224215  0.07760529  0.87493900
   0.00275442  0.08127802  0.86702336
   0.00275442  0.58127802  0.63297664
   0.50275442  0.91872198  0.13297664
   0.50275442  0.41872198  0.36702336
   0.49160506  0.91597418  0.62125561
   0.99160506  0.08402582  0.37874439
   0.99160506  0.58402582  0.12125561
   0.49160506  0.41597418  0.87874439
CIS                                     
           1
     6.946146    0.000000    0.000000
     0.000000    7.334382    0.000000
     0.000000    0.000000    8.562292
   Li   In   Se
   4   4   8
Direct configuration=    11
   0.61956184  0.58824615  0.12232645
   0.11956184  0.91175385  0.62232645
   0.61956184  0.08824615  0.37767355
   0.11956184  0.41175385  0.87767355
   0.62210820  0.57802303  0.62500218
   0.12210820  0.42197697  0.37499782
   0.12210820  0.92197697  0.12500218
   0.62210820  0.07802303  0.87499782
   0.00285820  0.08100278  0.86736320
   0.00285820  0.58100278  0.63263680
   0.50285820  0.91899722  0.13263680
   0.50285820  0.41899722  0.36736320
   0.49168076  0.91598286  0.62126696
   0.99168076  0.08401714  0.37873304
   0.99168076  0.58401714  0.12126696
   0.49168076  0.41598286  0.87873304
